Mg28Ni4O32
   1.00000000
   8.440351624  -0.000002781   0.000000000
  -0.000002781   8.440351624  -0.000000000
   0.000000000  -0.000000000   8.440334654
  Ni  Mg  O
  4  28  32
Direct configuration=     1
   0.999955376   0.999955376   0.000000000
   0.000060517   0.000060517   0.500000000
   0.500031272   0.500031272   0.000000000
   0.249930987   0.249930987   0.500000000
   0.000011728   0.499997988   0.000000000
   0.000068494   0.499931578   0.500000000
   0.499997988   0.000011728   0.000000000
   0.499931578   0.000068494   0.500000000
   0.499905547   0.499905547   0.500000000
   0.000082030   0.249781429   0.250067536
   0.000082030   0.249781429   0.749932464
   0.999983744   0.750225425   0.249976312
   0.999983744   0.750225425   0.750023688
   0.499927143   0.250109365   0.249968116
   0.499927143   0.250109365   0.750031884
   0.500016058   0.749880542   0.249920719
   0.500016058   0.749880542   0.750079281
   0.249781429   0.000082030   0.250067536
   0.249781429   0.000082030   0.749932464
   0.250109365   0.499927143   0.249968116
   0.250109365   0.499927143   0.750031884
   0.750225425   0.999983744   0.249976312
   0.750225425   0.999983744   0.750023688
   0.749880542   0.500016058   0.249920719
   0.749880542   0.500016058   0.750079281
   0.249992160   0.249992160   0.000000000
   0.249992800   0.749995715   0.000000000
   0.249908534   0.750090731   0.500000000
   0.749995715   0.249992800   0.000000000
   0.750090731   0.249908534   0.500000000
   0.750014999   0.750014999   0.000000000
   0.750095568   0.750095568   0.500000000
   0.249971676   0.249971676   0.249839660
   0.249971676   0.249971676   0.750160340
   0.250003448   0.749988807   0.250059262
   0.250003448   0.749988807   0.749940738
   0.749988807   0.250003448   0.250059262
   0.749988807   0.250003448   0.749940738
   0.749996152   0.749996152   0.250011215
   0.749996152   0.749996152   0.749988785
   0.250251386   0.000066493   0.000000000
   0.250110481   0.999864809   0.500000000
   0.249677911   0.499944583   0.000000000
   0.249998562   0.500193331   0.500000000
   0.749759898   0.000008170   0.000000000
   0.749838612   0.000054415   0.500000000
   0.750294805   0.499993015   0.000000000
   0.750000267   0.499943351   0.500000000
   0.000066493   0.250251386   0.000000000
   0.999864809   0.250110481   0.500000000
   0.000008170   0.749759898   0.000000000
   0.000054415   0.749838612   0.500000000
   0.499944583   0.249677911   0.000000000
   0.500193331   0.249998562   0.500000000
   0.499993015   0.750294805   0.000000000
   0.499943351   0.750000267   0.500000000
   0.000029236   0.000029236   0.249998611
   0.000029236   0.000029236   0.750001389
   0.000007804   0.499999393   0.249970105
   0.000007804   0.499999393   0.750029895
   0.499999393   0.000007804   0.249970105
   0.499999393   0.000007804   0.750029895
   0.500005707   0.500005707   0.250220845
   0.500005707   0.500005707   0.749779155
Mg28Ni4O32
   1.00000000
   8.442089740  -0.000017107  -0.000000000
  -0.000017107   8.442089740  -0.000000000
  -0.000000000  -0.000000000   8.441988838
  Ni  Mg  O
  4  28  32
Direct configuration=     2
   0.999786560   0.999786560   0.000000000
   0.000301448   0.000301448   0.500000000
   0.500151023   0.500151023   0.000000000
   0.249664747   0.249664747   0.500000000
   0.000075902   0.499961504   0.000000000
   0.000341039   0.499663621   0.500000000
   0.499961504   0.000075902   0.000000000
   0.499663621   0.000341039   0.500000000
   0.499523986   0.499523986   0.500000000
   0.000409171   0.248939305   0.250320700
   0.000409171   0.248939305   0.749679300
   0.999941300   0.751095624   0.249877692
   0.999941300   0.751095624   0.750122308
   0.499642696   0.250489956   0.249832695
   0.499642696   0.250489956   0.750167305
   0.500059416   0.749454650   0.249631358
   0.500059416   0.749454650   0.750368642
   0.248939305   0.000409171   0.250320700
   0.248939305   0.000409171   0.749679300
   0.250489956   0.499642696   0.249832695
   0.250489956   0.499642696   0.750167305
   0.751095624   0.999941300   0.249877692
   0.751095624   0.999941300   0.750122308
   0.749454650   0.500059416   0.249631358
   0.749454650   0.500059416   0.750368642
   0.249935581   0.249935581   0.000000000
   0.249953768   0.749997993   0.000000000
   0.249544077   0.750448416   0.500000000
   0.749997993   0.249953768   0.000000000
   0.750448416   0.249544077   0.500000000
   0.750088319   0.750088319   0.000000000
   0.750470232   0.750470232   0.500000000
   0.249841044   0.249841044   0.249208645
   0.249841044   0.249841044   0.750791355
   0.249998540   0.749961666   0.250270476
   0.249998540   0.749961666   0.749729524
   0.749961666   0.249998540   0.250270476
   0.749961666   0.249998540   0.749729524
   0.750004155   0.750004155   0.250035513
   0.750004155   0.750004155   0.749964487
   0.251212014   0.000328480   0.000000000
   0.250507672   0.999354952   0.500000000
   0.248430759   0.499722731   0.000000000
   0.250002503   0.500930566   0.500000000
   0.748841140   0.000033972   0.000000000
   0.749243918   0.000261506   0.500000000
   0.751435053   0.499972543   0.000000000
   0.749991545   0.499724309   0.500000000
   0.000328480   0.251212014   0.000000000
   0.999354952   0.250507672   0.500000000
   0.000033972   0.748841140   0.000000000
   0.000261506   0.749243918   0.500000000
   0.499722731   0.248430759   0.000000000
   0.500930566   0.250002503   0.500000000
   0.499972543   0.751435053   0.000000000
   0.499724309   0.749991545   0.500000000
   0.000158602   0.000158602   0.249981034
   0.000158602   0.000158602   0.750018966
   0.000051003   0.499987175   0.249885888
   0.000051003   0.499987175   0.750114112
   0.499987175   0.000051003   0.249885888
   0.499987175   0.000051003   0.750114112
   0.500014757   0.500014757   0.251081437
   0.500014757   0.500014757   0.748918563
Mg28Ni4O32
   1.00000000
   8.442607618  -0.000021757  -0.000000000
  -0.000021757   8.442607618  -0.000000000
  -0.000000000  -0.000000000   8.442480871
  Ni  Mg  O
  4  28  32
Direct configuration=     3
   0.999776698   0.999776698   0.000000000
   0.000326142   0.000326142   0.500000000
   0.500160081   0.500160081   0.000000000
   0.249644877   0.249644877   0.500000000
   0.000096154   0.499933241   0.000000000
   0.000368069   0.499642422   0.500000000
   0.499933241   0.000096154   0.000000000
   0.499642422   0.000368069   0.500000000
   0.499481168   0.499481168   0.500000000
   0.000441439   0.248882413   0.250331476
   0.000441439   0.248882413   0.749668524
   0.999956355   0.751156841   0.249863863
   0.999956355   0.751156841   0.750136137
   0.499619542   0.250479137   0.249812100
   0.499619542   0.250479137   0.750187900
   0.500046181   0.749456802   0.249627013
   0.500046181   0.749456802   0.750372987
   0.248882413   0.000441439   0.250331476
   0.248882413   0.000441439   0.749668524
   0.250479137   0.499619542   0.249812100
   0.250479137   0.499619542   0.750187900
   0.751156841   0.999956355   0.249863863
   0.751156841   0.999956355   0.750136137
   0.749456802   0.500046181   0.249627013
   0.749456802   0.500046181   0.750372987
   0.249906733   0.249906733   0.000000000
   0.249940444   0.750015971   0.000000000
   0.249508203   0.750478750   0.500000000
   0.750015971   0.249940444   0.000000000
   0.750478750   0.249508203   0.500000000
   0.750107832   0.750107832   0.000000000
   0.750502335   0.750502335   0.500000000
   0.249812718   0.249812718   0.249154432
   0.249812718   0.249812718   0.750845568
   0.249981040   0.749975383   0.250268295
   0.249981040   0.749975383   0.749731705
   0.749975383   0.249981040   0.250268295
   0.749975383   0.249981040   0.749731705
   0.750026089   0.750026089   0.250020774
   0.750026089   0.750026089   0.749979226
   0.251268795   0.000350521   0.000000000
   0.250507377   0.999332440   0.500000000
   0.248342429   0.499700449   0.000000000
   0.250009211   0.500973487   0.500000000
   0.748785431   0.000032400   0.000000000
   0.749228572   0.000273166   0.500000000
   0.751514775   0.499975428   0.000000000
   0.749984181   0.499707905   0.500000000
   0.000350521   0.251268795   0.000000000
   0.999332440   0.250507377   0.500000000
   0.000032400   0.748785431   0.000000000
   0.000273166   0.749228572   0.500000000
   0.499700449   0.248342429   0.000000000
   0.500973487   0.250009211   0.500000000
   0.499975428   0.751514775   0.000000000
   0.499707905   0.749984181   0.500000000
   0.000182548   0.000182548   0.249966862
   0.000182548   0.000182548   0.750033138
   0.000066464   0.499976368   0.249909954
   0.000066464   0.499976368   0.750090046
   0.499976368   0.000066464   0.249909954
   0.499976368   0.000066464   0.750090046
   0.500002836   0.500002836   0.251144987
   0.500002836   0.500002836   0.748855013
Mg28Ni4O32
   1.00000000
   8.453040518  -0.000116360   0.000000000
  -0.000116360   8.453040518   0.000000000
   0.000000000   0.000000000   8.452389600
  Ni  Mg  O
  4  28  32
Direct configuration=     4
   0.999681670   0.999681670   0.000000000
   0.000684767   0.000684767   0.500000000
   0.500272985   0.500272985   0.000000000
   0.249409075   0.249409075   0.500000000
   0.000470976   0.499361762   0.000000000
   0.000757498   0.499381973   0.500000000
   0.499361762   0.000470976   0.000000000
   0.499381973   0.000757498   0.500000000
   0.498831492   0.498831492   0.500000000
   0.000900702   0.248254761   0.250385990
   0.000900702   0.248254761   0.749614010
   0.000298912   0.751859010   0.249636339
   0.000298912   0.751859010   0.750363661
   0.499320603   0.249993613   0.249469316
   0.499320603   0.249993613   0.750530684
   0.499743895   0.749794044   0.249743894
   0.499743895   0.749794044   0.750256106
   0.248254761   0.000900702   0.250385990
   0.248254761   0.000900702   0.749614010
   0.249993613   0.499320603   0.249469316
   0.249993613   0.499320603   0.750530684
   0.751859010   0.000298912   0.249636339
   0.751859010   0.000298912   0.750363661
   0.749794044   0.499743895   0.249743894
   0.749794044   0.499743895   0.750256106
   0.249325246   0.249325246   0.000000000
   0.249684014   0.750401718   0.000000000
   0.248996423   0.750870016   0.500000000
   0.750401718   0.249684014   0.000000000
   0.750870016   0.248996423   0.500000000
   0.750472057   0.750472057   0.000000000
   0.750925235   0.750925235   0.500000000
   0.249300533   0.249300533   0.248448425
   0.249300533   0.249300533   0.751551575
   0.249607495   0.750296312   0.250069617
   0.249607495   0.750296312   0.749930383
   0.750296312   0.249607495   0.250069617
   0.750296312   0.249607495   0.749930383
   0.750492208   0.750492208   0.249700145
   0.750492208   0.750492208   0.750299855
   0.251796922   0.000628744   0.000000000
   0.250215056   0.999222169   0.500000000
   0.247341829   0.499382221   0.000000000
   0.250125161   0.501359522   0.500000000
   0.748242277   0.000000192   0.000000000
   0.749330255   0.000383404   0.500000000
   0.752413053   0.500034605   0.000000000
   0.749855495   0.499502792   0.500000000
   0.000628744   0.251796922   0.000000000
   0.999222169   0.250215056   0.500000000
   0.000000192   0.748242277   0.000000000
   0.000383404   0.749330255   0.500000000
   0.499382221   0.247341829   0.000000000
   0.501359522   0.250125161   0.500000000
   0.500034605   0.752413053   0.000000000
   0.499502792   0.749855495   0.500000000
   0.000604206   0.000604206   0.249657750
   0.000604206   0.000604206   0.750342250
   0.000368859   0.499746520   0.250488718
   0.000368859   0.499746520   0.749511282
   0.499746520   0.000368859   0.250488718
   0.499746520   0.000368859   0.749511282
   0.499738025   0.499738025   0.251859329
   0.499738025   0.499738025   0.748140671
Mg28Ni4O32
   1.00000000
   8.462251313  -0.000200556   0.000000000
  -0.000200556   8.462251313   0.000000000
   0.000000000   0.000000000   8.461132987
  Ni  Mg  O
  4  28  32
Direct configuration=     5
   0.999670247   0.999670247   0.000000000
   0.000880810   0.000880810   0.500000000
   0.500321969   0.500321969   0.000000000
   0.249328404   0.249328404   0.500000000
   0.000729431   0.498914933   0.000000000
   0.000973124   0.499286145   0.500000000
   0.498914933   0.000729431   0.000000000
   0.499286145   0.000973124   0.500000000
   0.498446988   0.498446988   0.500000000
   0.001140973   0.248086420   0.250327417
   0.001140973   0.248086420   0.749672583
   0.000586329   0.752083634   0.249486489
   0.000586329   0.752083634   0.750513511
   0.499185327   0.249450460   0.249244043
   0.499185327   0.249450460   0.750755957
   0.499491274   0.750244791   0.249977167
   0.499491274   0.750244791   0.750022833
   0.248086420   0.001140973   0.250327417
   0.248086420   0.001140973   0.749672583
   0.249450460   0.499185327   0.249244043
   0.249450460   0.499185327   0.750755957
   0.752083634   0.000586329   0.249486489
   0.752083634   0.000586329   0.750513511
   0.750244791   0.499491274   0.249977167
   0.750244791   0.499491274   0.750022833
   0.248855664   0.248855664   0.000000000
   0.249488481   0.750729431   0.000000000
   0.248722063   0.751034119   0.500000000
   0.750729431   0.249488481   0.000000000
   0.751034119   0.248722063   0.500000000
   0.750741959   0.750741959   0.000000000
   0.751120086   0.751120086   0.500000000
   0.248933864   0.248933864   0.248147199
   0.248933864   0.248933864   0.751852801
   0.249293664   0.750592081   0.249808410
   0.249293664   0.750592081   0.750191590
   0.750592081   0.249293664   0.249808410
   0.750592081   0.249293664   0.750191590
   0.750883999   0.750883999   0.249444516
   0.750883999   0.750883999   0.750555484
   0.251805477   0.000731509   0.000000000
   0.249786602   0.999372859   0.500000000
   0.247061287   0.499214235   0.000000000
   0.250174815   0.501340904   0.500000000
   0.748184795   0.999997601   0.000000000
   0.749695046   0.000399117   0.500000000
   0.752668148   0.500062789   0.000000000
   0.749792376   0.499409327   0.500000000
   0.000731509   0.251805477   0.000000000
   0.999372859   0.249786602   0.500000000
   0.999997601   0.748184795   0.000000000
   0.000399117   0.749695046   0.500000000
   0.499214235   0.247061287   0.000000000
   0.501340904   0.250174815   0.500000000
   0.500062789   0.752668148   0.000000000
   0.499409327   0.749792376   0.500000000
   0.000899511   0.000899511   0.249370241
   0.000899511   0.000899511   0.750629759
   0.000605597   0.499545254   0.251016257
   0.000605597   0.499545254   0.748983743
   0.499545254   0.000605597   0.251016257
   0.499545254   0.000605597   0.748983743
   0.499506452   0.499506452   0.252013700
   0.499506452   0.499506452   0.747986300
Mg28Ni4O32
   1.00000000
   8.472678844  -0.000296486   0.000000000
  -0.000296486   8.472678844   0.000000000
   0.000000000   0.000000000   8.471024006
  Ni  Mg  O
  4  28  32
Direct configuration=     6
   0.999710239   0.999710239   0.000000000
   0.000976197   0.000976197   0.500000000
   0.500334715   0.500334715   0.000000000
   0.249346972   0.249346972   0.500000000
   0.000890710   0.498549973   0.000000000
   0.001091623   0.499300265   0.500000000
   0.498549973   0.000890710   0.000000000
   0.499300265   0.001091623   0.500000000
   0.498216008   0.498216008   0.500000000
   0.001240655   0.248207237   0.250198484
   0.001240655   0.248207237   0.749801516
   0.000829907   0.752015719   0.249380678
   0.000829907   0.752015719   0.750619322
   0.499144879   0.248879949   0.249087925
   0.499144879   0.248879949   0.750912075
   0.499278252   0.750775060   0.250306554
   0.499278252   0.750775060   0.749693446
   0.248207237   0.001240655   0.250198484
   0.248207237   0.001240655   0.749801516
   0.248879949   0.499144879   0.249087925
   0.248879949   0.499144879   0.750912075
   0.752015719   0.000829907   0.249380678
   0.752015719   0.000829907   0.750619322
   0.750775060   0.499278252   0.250306554
   0.750775060   0.499278252   0.749693446
   0.248434736   0.248434736   0.000000000
   0.249328782   0.751037259   0.000000000
   0.248587815   0.751048681   0.500000000
   0.751037259   0.249328782   0.000000000
   0.751048681   0.248587815   0.500000000
   0.750955436   0.750955436   0.000000000
   0.751177922   0.751177922   0.500000000
   0.248658017   0.248658017   0.248122192
   0.248658017   0.248658017   0.751877808
   0.249006756   0.750897917   0.249496322
   0.249006756   0.750897917   0.750503678
   0.750897917   0.249006756   0.249496322
   0.750897917   0.249006756   0.750503678
   0.751247256   0.751247256   0.249248895
   0.751247256   0.751247256   0.750751105
   0.251450405   0.000704285   0.000000000
   0.249235892   0.999727753   0.500000000
   0.247264251   0.499139984   0.000000000
   0.250137262   0.501026965   0.500000000
   0.748445971   0.000049354   0.000000000
   0.750277689   0.000367912   0.500000000
   0.752504479   0.500042681   0.000000000
   0.749809518   0.499368597   0.500000000
   0.000704285   0.251450405   0.000000000
   0.999727753   0.249235892   0.500000000
   0.000049354   0.748445971   0.000000000
   0.000367912   0.750277689   0.500000000
   0.499139984   0.247264251   0.000000000
   0.501026965   0.250137262   0.500000000
   0.500042681   0.752504479   0.000000000
   0.499368597   0.749809518   0.500000000
   0.001118298   0.001118298   0.249041937
   0.001118298   0.001118298   0.750958063
   0.000806790   0.499341049   0.251534909
   0.000806790   0.499341049   0.748465091
   0.499341049   0.000806790   0.251534909
   0.499341049   0.000806790   0.748465091
   0.499282093   0.499282093   0.251726830
   0.499282093   0.499282093   0.748273170
Mg28Ni4O32
   1.00000000
   8.479223690  -0.000357183   0.000000000
  -0.000357183   8.479223690   0.000000000
   0.000000000   0.000000000   8.477223107
  Ni  Mg  O
  4  28  32
Direct configuration=     7
   0.999757078   0.999757078   0.000000000
   0.000931756   0.000931756   0.500000000
   0.500314194   0.500314194   0.000000000
   0.249422810   0.249422810   0.500000000
   0.000834891   0.498516401   0.000000000
   0.001068573   0.499390470   0.500000000
   0.498516401   0.000834891   0.000000000
   0.499390470   0.001068573   0.500000000
   0.498248490   0.498248490   0.500000000
   0.001161819   0.248445117   0.250116119
   0.001161819   0.248445117   0.749883881
   0.000851807   0.751795765   0.249379144
   0.000851807   0.751795765   0.750620856
   0.499193415   0.248723930   0.249087357
   0.499193415   0.248723930   0.750912643
   0.499260674   0.750982349   0.250489599
   0.499260674   0.750982349   0.749510401
   0.248445117   0.001161819   0.250116119
   0.248445117   0.001161819   0.749883881
   0.248723930   0.499193415   0.249087357
   0.248723930   0.499193415   0.750912643
   0.751795765   0.000851807   0.249379144
   0.751795765   0.000851807   0.750620856
   0.750982349   0.499260674   0.250489599
   0.750982349   0.499260674   0.749510401
   0.248332411   0.248332411   0.000000000
   0.249311071   0.751121815   0.000000000
   0.248639824   0.750939374   0.500000000
   0.751121815   0.249311071   0.000000000
   0.750939374   0.248639824   0.500000000
   0.750972669   0.750972669   0.000000000
   0.751104489   0.751104489   0.500000000
   0.248651358   0.248651358   0.248345267
   0.248651358   0.248651358   0.751654733
   0.248939534   0.751015506   0.249368191
   0.248939534   0.751015506   0.750631809
   0.751015506   0.248939534   0.249368191
   0.751015506   0.248939534   0.750631809
   0.751342299   0.751342299   0.249267345
   0.751342299   0.751342299   0.750732655
   0.251049469   0.000580582   0.000000000
   0.248953986   0.000020717   0.500000000
   0.247703158   0.499186656   0.000000000
   0.250011928   0.500677956   0.500000000
   0.748760288   0.000143667   0.000000000
   0.750657026   0.000343158   0.500000000
   0.752140560   0.499969432   0.000000000
   0.749916874   0.499374327   0.500000000
   0.000580582   0.251049469   0.000000000
   0.000020717   0.248953986   0.500000000
   0.000143667   0.748760288   0.000000000
   0.000343158   0.750657026   0.500000000
   0.499186656   0.247703158   0.000000000
   0.500677956   0.250011928   0.500000000
   0.499969432   0.752140560   0.000000000
   0.499374327   0.749916874   0.500000000
   0.001123808   0.001123808   0.248853031
   0.001123808   0.001123808   0.751146969
   0.000838873   0.499262290   0.251691529
   0.000838873   0.499262290   0.748308471
   0.499262290   0.000838873   0.251691529
   0.499262290   0.000838873   0.748308471
   0.499213407   0.499213407   0.251220558
   0.499213407   0.499213407   0.748779442
Mg28Ni4O32
   1.00000000
   8.486399701  -0.000424370   0.000000000
  -0.000424370   8.486399701   0.000000000
   0.000000000   0.000000000   8.484007938
  Ni  Mg  O
  4  28  32
Direct configuration=     8
   0.999801940   0.999801940   0.000000000
   0.000799229   0.000799229   0.500000000
   0.500272844   0.500272844   0.000000000
   0.249523019   0.249523019   0.500000000
   0.000594347   0.498734347   0.000000000
   0.000966498   0.499530515   0.500000000
   0.498734347   0.000594347   0.000000000
   0.499530515   0.000966498   0.500000000
   0.498445095   0.498445095   0.500000000
   0.000958902   0.248730729   0.250083384
   0.000958902   0.248730729   0.749916616
   0.000699725   0.751506142   0.249447424
   0.000699725   0.751506142   0.750552576
   0.499290178   0.248909221   0.249183280
   0.499290178   0.248909221   0.750816720
   0.499399757   0.750936842   0.250571259
   0.499399757   0.750936842   0.749428741
   0.248730729   0.000958902   0.250083384
   0.248730729   0.000958902   0.749916616
   0.248909221   0.499290178   0.249183280
   0.248909221   0.499290178   0.750816720
   0.751506142   0.000699725   0.249447424
   0.751506142   0.000699725   0.750552576
   0.750936842   0.499399757   0.250571259
   0.750936842   0.499399757   0.749428741
   0.248444242   0.248444242   0.000000000
   0.249399257   0.751049940   0.000000000
   0.248800579   0.750752445   0.500000000
   0.751049940   0.249399257   0.000000000
   0.750752445   0.248800579   0.500000000
   0.750843879   0.750843879   0.000000000
   0.750962344   0.750962344   0.500000000
   0.248844473   0.248844473   0.248759023
   0.248844473   0.248844473   0.751240977
   0.249030329   0.751011624   0.249388921
   0.249030329   0.751011624   0.750611079
   0.751011624   0.249030329   0.249388921
   0.751011624   0.249030329   0.750611079
   0.751247886   0.751247886   0.249475094
   0.751247886   0.751247886   0.750524906
   0.250616887   0.000378734   0.000000000
   0.248841643   0.000294558   0.500000000
   0.248295689   0.499311962   0.000000000
   0.249783614   0.500286923   0.500000000
   0.749083518   0.000300200   0.000000000
   0.750924103   0.000349043   0.500000000
   0.751659155   0.499833228   0.000000000
   0.750122432   0.499387155   0.500000000
   0.000378734   0.250616887   0.000000000
   0.000294558   0.248841643   0.500000000
   0.000300200   0.749083518   0.000000000
   0.000349043   0.750924103   0.500000000
   0.499311962   0.248295689   0.000000000
   0.500286923   0.249783614   0.500000000
   0.499833228   0.751659155   0.000000000
   0.499387155   0.750122432   0.500000000
   0.000974195   0.000974195   0.248696346
   0.000974195   0.000974195   0.751303654
   0.000748063   0.499262353   0.251590480
   0.000748063   0.499262353   0.748409520
   0.499262353   0.000748063   0.251590480
   0.499262353   0.000748063   0.748409520
   0.499254899   0.499254899   0.250488902
   0.499254899   0.499254899   0.749511098
Mg28Ni4O32
   1.00000000
   8.493459114  -0.000491559   0.000000000
  -0.000491559   8.493459114   0.000000000
   0.000000000   0.000000000   8.490668958
  Ni  Mg  O
  4  28  32
Direct configuration=     9
   0.999817176   0.999817176   0.000000000
   0.000632988   0.000632988   0.500000000
   0.500224920   0.500224920   0.000000000
   0.249583718   0.249583718   0.500000000
   0.000224402   0.499178076   0.000000000
   0.000827893   0.499654501   0.500000000
   0.499178076   0.000224402   0.000000000
   0.499654501   0.000827893   0.500000000
   0.498739577   0.498739577   0.500000000
   0.000701291   0.248906615   0.250143692
   0.000701291   0.248906615   0.749856308
   0.000397451   0.751299714   0.249569645
   0.000397451   0.751299714   0.750430355
   0.499393861   0.249468705   0.249340409
   0.499393861   0.249468705   0.750659591
   0.499677548   0.750567777   0.250470608
   0.499677548   0.750567777   0.749529392
   0.248906615   0.000701291   0.250143692
   0.248906615   0.000701291   0.749856308
   0.249468705   0.499393861   0.249340409
   0.249468705   0.499393861   0.750659591
   0.751299714   0.000397451   0.249569645
   0.751299714   0.000397451   0.750430355
   0.750567777   0.499677548   0.250470608
   0.750567777   0.499677548   0.749529392
   0.248775531   0.248775531   0.000000000
   0.249584847   0.750804625   0.000000000
   0.249003154   0.750575544   0.500000000
   0.750804625   0.249584847   0.000000000
   0.750575544   0.249003154   0.500000000
   0.750583717   0.750583717   0.000000000
   0.750825038   0.750825038   0.500000000
   0.249205954   0.249205954   0.249211149
   0.249205954   0.249205954   0.750788851
   0.249287076   0.750845970   0.249618462
   0.249287076   0.750845970   0.750381538
   0.750845970   0.249287076   0.249618462
   0.750845970   0.249287076   0.750381538
   0.750945491   0.750945491   0.249842266
   0.750945491   0.750945491   0.750157734
   0.250382161   0.000183255   0.000000000
   0.248998023   0.000407386   0.500000000
   0.248758177   0.499467201   0.000000000
   0.249538698   0.500048785   0.500000000
   0.749218433   0.000456608   0.000000000
   0.750916767   0.000406041   0.500000000
   0.751298721   0.499687559   0.000000000
   0.750347785   0.499391664   0.500000000
   0.000183255   0.250382161   0.000000000
   0.000407386   0.248998023   0.500000000
   0.000456608   0.749218433   0.000000000
   0.000406041   0.750916767   0.500000000
   0.499467201   0.248758177   0.000000000
   0.500048785   0.249538698   0.500000000
   0.499687559   0.751298721   0.000000000
   0.499391664   0.750347785   0.500000000
   0.000692599   0.000692599   0.248629595
   0.000692599   0.000692599   0.751370405
   0.000540095   0.499369384   0.251193436
   0.000540095   0.499369384   0.748806564
   0.499369384   0.000540095   0.251193436
   0.499369384   0.000540095   0.748806564
   0.499428987   0.499428987   0.249832192
   0.499428987   0.499428987   0.750167808
Mg28Ni4O32
   1.00000000
   8.498247157  -0.000538994   0.000000000
  -0.000538994   8.498247157   0.000000000
   0.000000000   0.000000000   8.495172110
  Ni  Mg  O
  4  28  32
Direct configuration=     10
   0.999796325   0.999796325   0.000000000
   0.000523610   0.000523610   0.500000000
   0.500189866   0.500189866   0.000000000
   0.249561315   0.249561315   0.500000000
   0.999921377   0.499624907   0.000000000
   0.000721792   0.499691136   0.500000000
   0.499624907   0.999921377   0.000000000
   0.499691136   0.000721792   0.500000000
   0.498986673   0.498986673   0.500000000
   0.000516979   0.248885069   0.250266353
   0.000516979   0.248885069   0.749733647
   0.000109909   0.751276133   0.249686288
   0.000109909   0.751276133   0.750313712
   0.499460156   0.250112802   0.249470477
   0.499460156   0.250112802   0.750529523
   0.499945337   0.750059103   0.250224179
   0.499945337   0.750059103   0.749775821
   0.248885069   0.000516979   0.250266353
   0.248885069   0.000516979   0.749733647
   0.250112802   0.499460156   0.249470477
   0.250112802   0.499460156   0.750529523
   0.751276133   0.000109909   0.249686288
   0.751276133   0.000109909   0.750313712
   0.750059103   0.499945337   0.250224179
   0.750059103   0.499945337   0.749775821
   0.249169935   0.249169935   0.000000000
   0.249777490   0.750495760   0.000000000
   0.249144681   0.750509230   0.500000000
   0.750495760   0.249777490   0.000000000
   0.750509230   0.249144681   0.500000000
   0.750316440   0.750316440   0.000000000
   0.750768811   0.750768811   0.500000000
   0.249558843   0.249558843   0.249468158
   0.249558843   0.249558843   0.750531842
   0.249591403   0.750579721   0.249963890
   0.249591403   0.750579721   0.750036110
   0.750579721   0.249591403   0.249963890
   0.750579721   0.249591403   0.750036110
   0.750570701   0.750570701   0.250178198
   0.750570701   0.750570701   0.749821802
   0.250483862   0.000107327   0.000000000
   0.249347942   0.000287589   0.500000000
   0.248838532   0.499569468   0.000000000
   0.249443246   0.500106590   0.500000000
   0.749077298   0.000499539   0.000000000
   0.750625275   0.000481142   0.500000000
   0.751250571   0.499636363   0.000000000
   0.750439847   0.499395609   0.500000000
   0.000107327   0.250483862   0.000000000
   0.000287589   0.249347942   0.500000000
   0.000499539   0.749077298   0.000000000
   0.000481142   0.750625275   0.500000000
   0.499569468   0.248838532   0.000000000
   0.500106590   0.249443246   0.500000000
   0.499636363   0.751250571   0.000000000
   0.499395609   0.750439847   0.500000000
   0.000412007   0.000412007   0.248701475
   0.000412007   0.000412007   0.751298525
   0.000314111   0.499547433   0.250680360
   0.000314111   0.499547433   0.749319640
   0.499547433   0.000314111   0.250680360
   0.499547433   0.000314111   0.749319640
   0.499665523   0.499665523   0.249634529
   0.499665523   0.499665523   0.750365471
Mg28Ni4O32
   1.00000000
   8.499698528  -0.000555878   0.000000000
  -0.000555878   8.499698528   0.000000000
   0.000000000   0.000000000   8.496521648
  Ni  Mg  O
  4  28  32
Direct configuration=     11
   0.999772312   0.999772312   0.000000000
   0.000506881   0.000506881   0.500000000
   0.500175026   0.500175026   0.000000000
   0.249503586   0.249503586   0.500000000