H107LiMg53
   1.00000000
   13.503017253   0.000000019   0.000000024
   0.000000019   13.503017211   0.000000007
   0.000000016   0.000000005   9.029981259
  Li  Mg  H
  1  53  107
Direct configuration=     1
   0.000000693   0.000001029   0.999999935
   0.000002575   0.000002582   0.332897049
   0.999999628   0.000000019   0.667103930
   0.000000187   0.333304092   0.000000426
   0.999998312   0.333321510   0.333325662
   0.999999091   0.333321674   0.666673920
   0.999998484   0.666697137   0.000000446
   0.000000239   0.666679638   0.333325595
   0.000001333   0.666678547   0.666673962
   0.333298292   0.999997725   0.999991492
   0.333315729   0.999995834   0.333334624
   0.333316614   0.000002625   0.666673712
   0.333169563   0.333488967   0.999574810
   0.333169277   0.333489372   0.333754329
   0.333322249   0.333336141   0.666671149
   0.333326454   0.666673689   0.000000341
   0.333331796   0.666668355   0.333334922
   0.333331789   0.666667532   0.666664736
   0.666694985   0.000000754   0.000009769
   0.666677387   0.000002497   0.333316291
   0.666676974   0.000002896   0.666673921
   0.666675970   0.333332703   0.999991824
   0.666670719   0.333338006   0.333343471
   0.666663927   0.333336889   0.666664748
   0.666668334   0.666668188   0.999999254
   0.666668516   0.666668367   0.333329557
   0.666670943   0.666671273   0.666671189
   0.166510169   0.166521388   0.166479905
   0.166661934   0.166651743   0.500006749
   0.166540410   0.166530252   0.833512603
   0.166636207   0.500026063   0.166664102
   0.166673545   0.499990618   0.499996410
   0.166671366   0.499990832   0.833339491
   0.166524583   0.833473103   0.166620869
   0.166655197   0.833345434   0.499999456
   0.166525514   0.833474973   0.833379655
   0.500183499   0.166478682   0.166664286
   0.500007669   0.166656489   0.500035649
   0.500007746   0.166654414   0.833300409
   0.500012633   0.500023311   0.166667664
   0.500004732   0.499994479   0.500007336
   0.500004692   0.499994444   0.833324995
   0.499998723   0.833338402   0.166664080
   0.500000037   0.833334722   0.500001904
   0.499999926   0.833336820   0.833334013
   0.833474065   0.166526628   0.166620738
   0.833345950   0.166655159   0.500001832
   0.833475571   0.166525475   0.833377387
   0.833339072   0.500000755   0.166664057
   0.833335220   0.499999998   0.499999485
   0.833337350   0.499999873   0.833336458
   0.833466164   0.833465642   0.166478883
   0.833343242   0.833343556   0.499999818
   0.833465746   0.833466075   0.833521315
   0.101612901   0.101613056   0.000006382
   0.101470908   0.101469970   0.333398804
   0.101463502   0.101465331   0.666594596
   0.101444721   0.434770097   0.000005721
   0.101442892   0.434768861   0.333326629
   0.101431978   0.434773680   0.666667654
   0.101457228   0.768074020   0.000000323
   0.101437910   0.768084203   0.333355790
   0.101438046   0.768084137   0.666643896
   0.434750985   0.101497668   0.000071183
   0.434749782   0.101495806   0.333261079
   0.434772964   0.101436662   0.666667638
   0.434759902   0.434708667   0.000077903
   0.434759601   0.434708372   0.333254924
   0.434779768   0.434779921   0.666667117
   0.434772149   0.768104810   0.999999554
   0.434772429   0.768105495   0.333333008
   0.434772574   0.768105855   0.666667437
   0.768076326   0.101457500   0.999997745
   0.768086553   0.101438166   0.333358306
   0.768084751   0.101437413   0.666643904
   0.768105939   0.434772341   0.000000489
   0.768106623   0.434772626   0.333332072
   0.768106031   0.434771982   0.666667438
   0.768038984   0.768039036   0.000000058
   0.768108640   0.768108691   0.333325822
   0.768108883   0.768108934   0.666674118
   0.232023107   0.231972870   0.000075569
   0.231954654   0.231903710   0.333249551
   0.231883121   0.231883240   0.666674347
   0.231897967   0.565223604   0.000005770
   0.231897272   0.565223327   0.333326799
   0.231892410   0.565234254   0.666667433
   0.231926128   0.898541907   0.000000453
   0.231915937   0.898561199   0.333355581
   0.231916617   0.898561795   0.666643919
   0.565170679   0.231917088   0.000071352
   0.565170468   0.231916387   0.333261329
   0.565229582   0.231893136   0.666667447
   0.565223202   0.565222258   0.000006454
   0.565223515   0.565222573   0.333326439
   0.565228145   0.565229958   0.666667109
   0.565226640   0.898556759   0.999997826
   0.565227904   0.898558628   0.333334518
   0.565228652   0.898560412   0.666667655
   0.898543105   0.231926377   0.999999524
   0.898562340   0.231916158   0.333356551
   0.898561980   0.231916034   0.666643887
   0.898559110   0.565226879   0.000000299
   0.898560965   0.565228155   0.333332045
   0.898561017   0.565228017   0.666667657
   0.898391488   0.898391525   0.000000065
   0.898534762   0.898534800   0.333405474
   0.898534488   0.898534539   0.666594494
   0.065219963   0.268139707   0.166691951
   0.065225359   0.268099486   0.499998955
   0.065216047   0.268137689   0.833308873
   0.065228222   0.601440176   0.166668149
   0.065229210   0.601438732   0.500000790
   0.065229136   0.601439262   0.833331062
   0.065357786   0.934640853   0.166966325
   0.065214381   0.934784515   0.500000300
   0.065358093   0.934640863   0.833033159
   0.398565591   0.268101420   0.499989046
   0.398562949   0.268099730   0.833345273
   0.398557741   0.601436419   0.166666576
   0.398560251   0.601440327   0.499998935
   0.398559738   0.601440841   0.833334488
   0.398558625   0.934773303   0.166668105
   0.398561673   0.934770940   0.500000162
   0.398561114   0.934771024   0.833331700
   0.731897097   0.268102499   0.166665868
   0.731895080   0.268104370   0.500000189
   0.731899300   0.268100104   0.833333950
   0.731896994   0.601441911   0.166666008
   0.731895138   0.601438960   0.500000346
   0.731896918   0.601441622   0.833333646
   0.731864418   0.934781217   0.166692211
   0.731901077   0.934773468   0.499999469
   0.731862769   0.934782877   0.833308294
   0.268151543   0.065242668   0.166691885
   0.268100737   0.065223695   0.500002399
   0.268138917   0.065214450   0.833305687
   0.268305144   0.398357770   0.166665965
   0.268096775   0.398570227   0.499993095
   0.268095089   0.398567634   0.833340827
   0.268101249   0.731899803   0.166665874
   0.268105461   0.731894737   0.499999408
   0.268101213   0.731898977   0.833334723
   0.601436998   0.065231393   0.166668203
   0.601439451   0.065228489   0.500000473
   0.601439981   0.065228431   0.833331364
   0.601413482   0.398546169   0.166666543
   0.601441954   0.398559016   0.500002374
   0.601442472   0.398558487   0.833331064
   0.601441166   0.731897397   0.166666007
   0.601438418   0.731895252   0.500000163
   0.601441080   0.731897030   0.833333829
   0.934640748   0.065358590   0.166966112
   0.934784410   0.065214920   0.500000110
   0.934640798   0.065358605   0.833033315
   0.934770489   0.398560050   0.166668112
   0.934771275   0.398560590   0.499999404
   0.934771351   0.398560056   0.833332481
   0.934783014   0.731862648   0.166692215
   0.934773220   0.731901328   0.499999913
   0.934782650   0.731863010   0.833307873
H107LiMg53
   1.00000000
   13.503225261  -0.000001626   0.000000273
  -0.000001626   13.503224816   0.000000121
   0.000000183   0.000000081   9.029762234
  Li  Mg  H
  1  53  107
Direct configuration=     2
   0.000008419   0.000012541   0.999999384
   0.000030695   0.000030368   0.328271648
   0.999994327   0.999999075   0.671740033
   0.000003046   0.332998529   0.000004507
   0.999976401   0.333198099   0.333261869
   0.999983265   0.333200668   0.666733577
   0.999976126   0.667017327   0.000001923
   0.000001539   0.666816729   0.333264145
   0.000017083   0.666801193   0.666733927
   0.332933410   0.999987005   0.999905898
   0.333133379   0.999960060   0.333360929
   0.333139399   0.000027572   0.666731086
   0.331328821   0.335275016   0.994863108
   0.331301237   0.335255985   0.338426073
   0.333209140   0.333344065   0.666715227
   0.333243493   0.666761835   0.000003706
   0.333312990   0.666692486   0.333345732
   0.333312277   0.666685104   0.666650547
   0.666996142   0.999998618   0.000103055
   0.666794372   0.000023958   0.333163243
   0.666784810   0.000033359   0.666733431
   0.666776040   0.333314026   0.999910085
   0.666707617   0.333382975   0.333439741
   0.666639991   0.333373966   0.666650637
   0.666671622   0.666669459   0.999991752
   0.666696742   0.666694535   0.333293078
   0.666726478   0.666730484   0.666715173
   0.164800011   0.164930550   0.164513145
   0.166635869   0.166508980   0.500053158
   0.165168550   0.165041918   0.835424916
   0.166351454   0.500259070   0.166631752
   0.166728114   0.499903013   0.499950682
   0.166702196   0.499907575   0.833417581
   0.165025401   0.834945985   0.166163182
   0.166508488   0.833498487   0.499994463
   0.165037720   0.834967588   0.833842113
   0.502262283   0.164347611   0.166634357
   0.500090627   0.166540243   0.500405170
   0.500093735   0.166515247   0.832964476
   0.500154881   0.500281008   0.166674328
   0.500053730   0.499926270   0.500060363
   0.500052978   0.499925618   0.833265310
   0.499981959   0.833397921   0.166631590
   0.500001193   0.833353301   0.500024029
   0.499997766   0.833378534   0.833344341
   0.834957742   0.165052813   0.166161568
   0.833505906   0.166508870   0.500023280
   0.834976137   0.165037880   0.833814660
   0.833405858   0.500009672   0.166631333
   0.833360546   0.500001520   0.499994804
   0.833386150   0.499997907   0.833373871
   0.834919377   0.834909773   0.164499767
   0.833433742   0.833437353   0.499998121
   0.834912801   0.834916527   0.835502275
   0.103537646   0.103539562   0.000072968
   0.101881614   0.101869641   0.334105105
   0.101784963   0.101807117   0.665817200
   0.101582542   0.434792846   0.000082234
   0.101563651   0.434782351   0.333243632
   0.101423571   0.434846450   0.666674172
   0.101727870   0.767791707   0.000004317
   0.101502262   0.767901086   0.333616194
   0.101503736   0.767901248   0.666379603
   0.434548657   0.102222511   0.000873907
   0.434538480   0.102203300   0.332450977
   0.434836511   0.101472228   0.666674012
   0.434695925   0.434051502   0.000941647
   0.434691959   0.434047408   0.332388575
   0.434915289   0.434920413   0.666668980
   0.434831563   0.768157396   0.999994449
   0.434834242   0.768166087   0.333334005
   0.434835746   0.768170130   0.666671540
   0.767817856   0.101730511   0.999974709
   0.767927759   0.101504698   0.333645140
   0.767907742   0.101495757   0.666379692
   0.768171892   0.434834814   0.000006408
   0.768180593   0.434837574   0.333322008
   0.768172974   0.434828798   0.666671563
   0.767361123   0.767361112   0.000000419
   0.768225500   0.768225457   0.333190453
   0.768229297   0.768229598   0.666809085
   0.233398517   0.232762836   0.000919066
   0.232548173   0.231906713   0.332266211
   0.231675283   0.231680086   0.666811961
   0.231881128   0.565103769   0.000082860
   0.231872337   0.565101196   0.333245691
   0.231807643   0.565241426   0.666671487
   0.232208826   0.898261049   0.000005986
   0.232099342   0.898486480   0.333613438
   0.232108544   0.898494159   0.666379959
   0.564464359   0.232125284   0.000876181
   0.564462511   0.232116420   0.332453774
   0.565192902   0.231817749   0.666671713
   0.565111403   0.565099350   0.000075419
   0.565115353   0.565103309   0.333255814
   0.565177812   0.565199731   0.666668792
   0.565163097   0.898450744   0.999975496
   0.565173826   0.898469985   0.333350320
   0.565182740   0.898489776   0.666674175
   0.898276506   0.232212797   0.999994052
   0.898501179   0.232102965   0.333625890
   0.898497092   0.232101694   0.666379554
   0.898477378   0.565165286   0.000003950
   0.898496495   0.565176227   0.333321830
   0.898496195   0.565174774   0.666674193
   0.896520987   0.896520721   0.000000614
   0.898193559   0.898193385   0.334183892
   0.898189102   0.898189421   0.665815933
   0.065078781   0.268577791   0.166966246
   0.065143979   0.268093030   0.499983886
   0.065038600   0.268547178   0.833047234
   0.065168706   0.601525424   0.166678053
   0.065188157   0.601499165   0.500007677
   0.065190118   0.601503974   0.833314294
   0.066667737   0.933316519   0.170268743
   0.064976605   0.935010584   0.500002966
   0.066671055   0.933316417   0.829725932
   0.398549634   0.268121114   0.499910814
   0.398521464   0.268100272   0.833434282
   0.398455478   0.601471926   0.166661071
   0.398488745   0.601515262   0.499983630
   0.398485765   0.601518209   0.833355299
   0.398467249   0.934844420   0.166677487
   0.398502793   0.934820058   0.500000671
   0.398497661   0.934818208   0.833321371
   0.731906650   0.268086666   0.166655229
   0.731838668   0.268151218   0.500001002
   0.731932059   0.268057333   0.833343837
   0.731863050   0.601533641   0.166658373
   0.731840403   0.601501725   0.500003476
   0.731862279   0.601530404   0.833338162
   0.731468365   0.934941150   0.166968812
   0.731909807   0.934848785   0.499991872
   0.731454472   0.934955128   0.833038976
   0.268723907   0.065360426   0.166964981
   0.268110810   0.065118699   0.500029106
   0.268564606   0.065014347   0.833005367
   0.270587469   0.396037126   0.166658637
   0.268021836   0.398648780   0.500026231
   0.268001412   0.398620925   0.833314912
   0.268071100   0.731941154   0.166655347
   0.268164315   0.731838130   0.499991653
   0.268070600   0.731931741   0.833353048
   0.601543613   0.065150613   0.166678648
   0.601509049   0.065178262   0.499999456
   0.601513807   0.065180478   0.833322364
   0.601188238   0.398312394   0.166660693
   0.601540126   0.398471135   0.500028840
   0.601543118   0.398467955   0.833310253
   0.601523994   0.731867965   0.166658358
   0.601495211   0.731841377   0.500001466
   0.601523907   0.731863230   0.833340181
   0.933315275   0.066678383   0.170266175
   0.935009650   0.064983095   0.500000883
   0.933315986   0.066677222   0.829727624
   0.934808767   0.398484761   0.166677591
   0.934820511   0.398489753   0.499991624
   0.934818583   0.398484908   0.833330769
   0.934956467   0.731453335   0.166968876
   0.934844236   0.731914374   0.499999107
   0.934950798   0.731458930   0.833032028
H107LiMg53
   1.00000000
   13.503246885  -0.000004253   0.000000271
  -0.000004253   13.503246501   0.000000174
   0.000000181   0.000000116   9.029748900
  Li  Mg  H
  1  53  107
Direct configuration=     3
   0.000008396   0.000012643   0.999999552
   0.000030948   0.000030260   0.328377831
   0.999993358   0.999998137   0.671633849
   0.000003710   0.333006627   0.000004150
   0.999973088   0.333199986   0.333276551
   0.999977929   0.333202956   0.666719191
   0.999970900   0.667010668   0.999999218
   0.000000402   0.666816186   0.333281398
   0.000018355   0.666798241   0.666719379
   0.332944344   0.000000396   0.999912684
   0.333138342   0.999969425   0.333368573
   0.333140687   0.000024170   0.666716593
   0.331281790   0.335350230   0.994799876
   0.331229443   0.335306036   0.338489845
   0.333213684   0.333317672   0.666714394
   0.333231310   0.666777035   0.000003466
   0.333306878   0.666701682   0.333335880
   0.333305749   0.666696299   0.666660642
   0.666994680   0.999988103   0.000089636
   0.666799064   0.000017601   0.333191150
   0.666783887   0.000032618   0.666718886
   0.666778747   0.333298965   0.999916907
   0.666704351   0.333373926   0.333422859
   0.666649298   0.333368451   0.666660659
   0.666660526   0.666657944   0.999992302
   0.666708059   0.666705425   0.333293470
   0.666738754   0.666742771   0.666714238
   0.164803706   0.164931274   0.164597356
   0.166663496   0.166530657   0.500028092
   0.165178791   0.165045871   0.835367183
   0.166388996   0.500221081   0.166630914
   0.166710918   0.499917907   0.499945674
   0.166684952   0.499924419   0.833423451
   0.165080942   0.834889351   0.166200601
   0.166490914   0.833515647   0.499995195
   0.165094448   0.834910508   0.833803980
   0.502329581   0.164280037   0.166633900
   0.500089286   0.166539010   0.500387530
   0.500094396   0.166513767   0.832982554
   0.500158594   0.500283701   0.166674128
   0.500051519   0.499918225   0.500035802
   0.500050552   0.499917387   0.833290117
   0.499979226   0.833398781   0.166630828
   0.500001855   0.833353472   0.500025294
   0.499996440   0.833378947   0.833343833
   0.834901678   0.165111206   0.166198986
   0.833524144   0.166492154   0.500024589
   0.834920201   0.165095379   0.833775898
   0.833406804   0.500010300   0.166630606
   0.833361831   0.500003002   0.499995569
   0.833387661   0.499997396   0.833373826
   0.834918124   0.834905981   0.164580156
   0.833413995   0.833417440   0.499998318
   0.834910343   0.834913892   0.835421630
   0.103508638   0.103510563   0.000065692
   0.101879484   0.101866728   0.334098426
   0.101775535   0.101798092   0.665824918
   0.101591911   0.434782280   0.000094542
   0.101575458   0.434775405   0.333231985
   0.101425405   0.434846539   0.666673502
   0.101734400   0.767791574   0.000004649
   0.101512645   0.767889011   0.333629911
   0.101513952   0.767890029   0.666365539
   0.434522706   0.102243713   0.000900741
   0.434516003   0.102226996   0.332424801
   0.434835458   0.101468105   0.666673310
   0.434708759   0.434029524   0.000955889
   0.434703742   0.434024164   0.332373656
   0.434912180   0.434920462   0.666669502
   0.434834489   0.768157566   0.999994197
   0.434836670   0.768166802   0.333334681
   0.434837958   0.768170651   0.666671114
   0.767816609   0.101736622   0.999975891
   0.767914535   0.101514656   0.333658100
   0.767895809   0.101505570   0.666365629
   0.768172863   0.434838439   0.000007041
   0.768182096   0.434840704   0.333321782
   0.768174259   0.434831105   0.666671152
   0.767349799   0.767349161   0.000000185
   0.768244611   0.768243927   0.333140563
   0.768249170   0.768249242   0.666859192
   0.233431511   0.232756126   0.000940698
   0.232550897   0.231874467   0.332201994
   0.231654524   0.231662615   0.666862859
   0.231886869   0.565088201   0.000095207
   0.231877519   0.565086153   0.333233734
   0.231805735   0.565236315   0.666671058
   0.232207947   0.898253907   0.000006600
   0.232110403   0.898475632   0.333626770
   0.232120466   0.898483578   0.666365968
   0.564437470   0.232146558   0.000903418
   0.564435956   0.232137126   0.332426971
   0.565193729   0.231816984   0.666671359
   0.565106624   0.565093720   0.000074319
   0.565111468   0.565098576   0.333256482
   0.565180128   0.565202379   0.666669232
   0.565167794   0.898455438   0.999976512
   0.565174884   0.898472168   0.333350009
   0.565183991   0.898490695   0.666673469
   0.898270351   0.232212648   0.999993759
   0.898491208   0.232114736   0.333640152
   0.898487308   0.232113714   0.666365576
   0.898480940   0.565169571   0.000004235
   0.898497556   0.565176902   0.333322242
   0.898496400   0.565175620   0.666673498
   0.896555395   0.896554456   0.000000519
   0.898202480   0.898201692   0.334176248
   0.898196893   0.898196986   0.665823722
   0.065079537   0.268583404   0.166969055
   0.065145862   0.268092532   0.499980495
   0.065044702   0.268547030   0.833047568
   0.065163447   0.601530192   0.166675792
   0.065188065   0.601497300   0.500006019
   0.065192648   0.601500905   0.833318220
   0.066621633   0.933363085   0.170329298
   0.064948227   0.935039265   0.500002359
   0.066624606   0.933362506   0.829666019
   0.398547383   0.268126085   0.499948510
   0.398523145   0.268104899   0.833392418
   0.398453001   0.601471368   0.166659942
   0.398490221   0.601510991   0.499980201
   0.398489225   0.601511889   0.833359872
   0.398467479   0.934846732   0.166675208
   0.398502494   0.934825722   0.499999390
   0.398498530   0.934821273   0.833324857
   0.731939079   0.268052162   0.166656809
   0.731836286   0.268150177   0.499999677
   0.731963901   0.268022052   0.833343579
   0.731861629   0.601528442   0.166661814
   0.731838886   0.601500296   0.500002835
   0.731861076   0.601525415   0.833335361
   0.731460967   0.934945081   0.166971070
   0.731906964   0.934853047   0.499990383
   0.731451558   0.934954575   0.833038255
   0.268734608   0.065372455   0.166967124
   0.268112895   0.065115421   0.500029759
   0.268566843   0.065015852   0.833002165
   0.270646662   0.395985281   0.166663721
   0.267972129   0.398701122   0.500159990
   0.267951544   0.398676815   0.833177784
   0.268036033   0.731976043   0.166657001
   0.268163452   0.731839013   0.499990339
   0.268035518   0.731966835   0.833352687
   0.601616256   0.065077810   0.166676355
   0.601507987   0.065177380   0.499993309
   0.601511567   0.065182238   0.833330802
   0.601177209   0.398304618   0.166659563
   0.601540998   0.398470000   0.500029454
   0.601541965   0.398468818   0.833310786
   0.601517950   0.731866656   0.166661795
   0.601493685   0.731839519   0.500000962
   0.601518831   0.731861678   0.833337244
   0.933361777   0.066633423   0.170326738
   0.935038617   0.064954832   0.500000452
   0.933362475   0.066630799   0.829667605
   0.934808807   0.398485386   0.166675307
   0.934822983   0.398489211   0.499990319
   0.934818452   0.398485537   0.833334355
   0.934955487   0.731450816   0.166971127
   0.934847182   0.731912851   0.499999290
   0.934948871   0.731457326   0.833029573
H107LiMg53
   1.00000000
   13.503686429  -0.000052489   0.000000225
  -0.000052489   13.503687128   0.000001147
   0.000000151   0.000000767   9.029459335
  Li  Mg  H
  1  53  107
Direct configuration=     4
   0.000009805   0.000017041   0.000001868
   0.000042586   0.000035350   0.329314537
   0.999976584   0.999982372   0.670699765
   0.000014651   0.333081831   0.999997229
   0.999910867   0.333211871   0.333515048
   0.999884382   0.333222699   0.666486448
   0.999875613   0.666965364   0.999957080
   0.999980093   0.666832398   0.333558964
   0.000043761   0.666768765   0.666484029
   0.333053401   0.000234876   0.000013996
   0.333188214   0.000129443   0.333500465
   0.333130742   0.999969184   0.666481654
   0.330059673   0.337058679   0.992673189
   0.329563545   0.336562384   0.340609748
   0.333273007   0.332847621   0.666714511
   0.332991379   0.667069420   0.999998531
   0.333190903   0.666871314   0.333170084
   0.333181977   0.666896797   0.666831519
   0.667051463   0.999789405   0.999855060
   0.666917874   0.999895012   0.333660337
   0.666785963   0.000026683   0.666483409
   0.666851743   0.333025664   0.000019655
   0.666655324   0.333223453   0.333149782
   0.666811818   0.333274648   0.666830284
   0.666462177   0.666451535   0.999999821
   0.666913640   0.666902844   0.333287287
   0.666967266   0.666971900   0.666713084
   0.164507896   0.164605586   0.165614066
   0.167147004   0.166882103   0.499604128
   0.165072514   0.164801667   0.834794113
   0.167002056   0.499586218   0.166609527
   0.166397807   0.500182408   0.499855452
   0.166365543   0.500222583   0.833535623
   0.165703429   0.834242080   0.166763271
   0.166145703   0.833855097   0.500006025
   0.165739765   0.834260206   0.833230620
   0.503970338   0.162620026   0.166619120
   0.500078390   0.166496553   0.500152068
   0.500117770   0.166461651   0.833232921
   0.500254451   0.500383207   0.166677259
   0.500021558   0.499758023   0.499621457
   0.500016708   0.499753848   0.833702140
   0.499929275   0.833428101   0.166610687
   0.500013586   0.833362349   0.500050787
   0.499974191   0.833397315   0.833338356
   0.834266019   0.165789748   0.166761276
   0.833882364   0.166162901   0.500050659
   0.834290128   0.165754911   0.833186905
   0.833438720   0.500025102   0.166611038
   0.833389973   0.500029986   0.500007090
   0.833425145   0.499990186   0.833381832
   0.835199991   0.835150416   0.165529652
   0.833087447   0.833088128   0.500000798
   0.835174733   0.835175198   0.834468875
   0.103404483   0.103406576   0.999958298
   0.101928178   0.101898475   0.334153690
   0.101682334   0.101715563   0.665769244
   0.101796308   0.434592972   0.000335121
   0.101816822   0.434645172   0.333002979
   0.101443140   0.434863667   0.666661804
   0.101905360   0.767733338   0.000009871
   0.101712738   0.767633776   0.333938069
   0.101711095   0.767649652   0.666051916
   0.434023014   0.102777802   0.001547094
   0.434072880   0.102799334   0.331789794
   0.434832421   0.101402040   0.666660875
   0.434931000   0.433503930   0.001377991
   0.434895577   0.433464248   0.331939599
   0.434884980   0.434949317   0.666678858
   0.434895264   0.768170065   0.999988040
   0.434890576   0.768191296   0.333344910
   0.434888055   0.768192627   0.666667007
   0.767745405   0.101902859   0.999988925
   0.767645787   0.101710030   0.333960101
   0.767644814   0.101694473   0.666052038
   0.768198856   0.434909356   0.000020107
   0.768219915   0.434904849   0.333312471
   0.768210935   0.434881559   0.666667292
   0.767028221   0.767015970   0.999996186
   0.768601495   0.768588969   0.332231983
   0.768619798   0.768616629   0.667771429
   0.234293587   0.232781611   0.001491261
   0.232735341   0.231309847   0.330875552
   0.231247143   0.231313373   0.667788974
   0.231996570   0.564783705   0.000336718
   0.231974819   0.564789144   0.332995731
   0.231754627   0.565162223   0.666666949
   0.232250638   0.898073124   0.000019308
   0.232350062   0.898268272   0.333925393
   0.232374243   0.898277989   0.666053763
   0.563811940   0.232569082   0.001557455
   0.563814483   0.232547452   0.331777452
   0.565203070   0.231785946   0.666668478
   0.564996680   0.564965590   0.000071819
   0.565026794   0.564995824   0.333251316
   0.565211750   0.565243326   0.666677079
   0.565232926   0.898513124   0.999986701
   0.565180628   0.898491479   0.333352239
   0.565197099   0.898492693   0.666661091
   0.898106440   0.232265888   0.999986828
   0.898298596   0.232364543   0.333958959
   0.898296998   0.232367861   0.666053429
   0.898525334   0.565230111   0.000008573
   0.898503777   0.565178708   0.333330122
   0.898487758   0.565180514   0.666661284
   0.896765410   0.896752194   0.999999039
   0.898286699   0.898274561   0.334232358
   0.898259610   0.898256530   0.665770043
   0.065065919   0.268772341   0.167079518
   0.065168374   0.268079601   0.499913867
   0.065116597   0.268629629   0.832998552
   0.065075153   0.601614978   0.166639891
   0.065173570   0.601478045   0.499976109
   0.065223283   0.601465967   0.833384140
   0.066133066   0.933858260   0.172093724
   0.064412421   0.935578043   0.499991446
   0.066130678   0.933846962   0.827912750
   0.398482516   0.268231386   0.500595260
   0.398530977   0.268204432   0.832671411
   0.398375342   0.601479207   0.166634741
   0.398499118   0.601451355   0.499912802
   0.398521416   0.601427682   0.833452722
   0.398454573   0.934904274   0.166638821
   0.398490884   0.934936497   0.499972567
   0.398501833   0.934887365   0.833386653
   0.732491511   0.267458095   0.166684149
   0.731786671   0.268134223   0.499972150
   0.732509853   0.267410293   0.833343649
   0.731826378   0.601452888   0.166723574
   0.731803213   0.601494169   0.499991267
   0.731831006   0.601453012   0.833285144
   0.731264928   0.935032133   0.167071638
   0.731863828   0.934937386   0.499966414
   0.731317569   0.934979277   0.832962004
   0.269042878   0.065609911   0.167065286
   0.268149145   0.065040118   0.500045372
   0.268695165   0.065000014   0.832880695
   0.272149749   0.394609345   0.166754966
   0.267077082   0.399635327   0.502575609
   0.267053908   0.399675692   0.830703614
   0.267430548   0.732580580   0.166685586
   0.268153902   0.731848693   0.499964156
   0.267430427   0.732571871   0.833349853
   0.602926870   0.063769599   0.166639830
   0.601496794   0.065155054   0.499878315
   0.601485231   0.065205337   0.833482236
   0.600947016   0.398105414   0.166634290
   0.601578726   0.398429248   0.500044362
   0.601555612   0.398451637   0.833321489
   0.601424522   0.731834182   0.166723504
   0.601484489   0.731797713   0.499991410
   0.601443469   0.731825440   0.833284968
   0.933855829   0.066168330   0.172091313
   0.935582377   0.064422565   0.499992288
   0.933853807   0.066138818   0.827912730
   0.934816453   0.398482069   0.166638879
   0.934875707   0.398470014   0.499964263
   0.934826227   0.398481559   0.833396775
   0.934971500   0.731324949   0.167072025
   0.934910229   0.731891084   0.500003212
   0.934951230   0.731344528   0.832924279
H107LiMg53
   1.00000000
   13.503762223  -0.000060630   0.000000164
  -0.000060630   13.503763125   0.000001282
   0.000000110   0.000000857   9.029409651
  Li  Mg  H
  1  53  107
Direct configuration=     5
   0.000010437   0.000018112   0.000001454
   0.000046277   0.000038228   0.329337087
   0.999976441   0.999981912   0.670678247
   0.000014225   0.333077750   0.999994975
   0.999904165   0.333215318   0.333532298
   0.999877901   0.333227334   0.666471182
   0.999866148   0.666975137   0.999959274
   0.999977296   0.666834434   0.333572084
   0.000046611   0.666765159   0.666468716
   0.333047191   0.000262813   0.000023080
   0.333189920   0.000150327   0.333506233
   0.333130383   0.999963213   0.666466276
   0.329861411   0.337311393   0.992272706
   0.329312520   0.336756987   0.340998822
   0.333280103   0.332785813   0.666722095
   0.332951850   0.667112930   0.999996593
   0.333171683   0.666894646   0.333158051
   0.333161531   0.666919864   0.666845602
   0.667091250   0.999749928   0.999807805
   0.666949773   0.999862302   0.333722581
   0.666783632   0.000028207   0.666467988
   0.666867608   0.332988556   0.000029095
   0.666651260   0.333206479   0.333126295
   0.666834281   0.333259238   0.666844315
   0.666435648   0.666423741   0.999999793
   0.666938492   0.666926407   0.333278961
   0.666995669   0.667000003   0.666721441
   0.164426583   0.164520898   0.165616659
   0.167204872   0.166918194   0.499565979