H107LiMg53
   1.00000000
   13.503016966   0.000002980  -0.000000151
   0.000002980   13.503016966  -0.000000151
  -0.000000101  -0.000000101   9.029981525
  Li  Mg  H
  1  53  107
Direct configuration=     1
   0.999993244   0.999993244   0.999995573
   0.999814791   0.999814791   0.332890890
   0.999988704   0.999988704   0.667136281
   0.999995634   0.333299595   0.999992239
   0.999984070   0.333346193   0.333325214
   0.999993525   0.333317079   0.666682400
   0.999999202   0.666695013   0.999998346
   0.000002326   0.666679238   0.333325984
   0.000001136   0.666677261   0.666675850
   0.333299595   0.999995634   0.999992239
   0.333346193   0.999984070   0.333325215
   0.333317079   0.999993525   0.666682400
   0.333319252   0.333319252   0.000004845
   0.333355136   0.333355136   0.333327924
   0.333319896   0.333319895   0.666667364
   0.333326703   0.666674014   0.000000702
   0.333332870   0.666667128   0.333334949
   0.333332115   0.666668679   0.666664330
   0.666695013   0.999999202   0.999998346
   0.666679238   0.000002326   0.333325984
   0.666677261   0.000001136   0.666675850
   0.666674014   0.333326703   0.000000701
   0.666667128   0.333332870   0.333334950
   0.666668679   0.333332115   0.666664330
   0.666670970   0.666670970   0.000000228
   0.666670858   0.666670858   0.333328706
   0.666671115   0.666671115   0.666671045
   0.166697828   0.166697828   0.166060863
   0.166820554   0.166820554   0.500437019
   0.166543952   0.166543952   0.833514335
   0.166662171   0.500000548   0.166664353
   0.166664295   0.500000448   0.499999786
   0.166662222   0.499999752   0.833335831
   0.166535808   0.833469009   0.166614358
   0.166662120   0.833340412   0.500006738
   0.166531039   0.833477227   0.833378516
   0.500000548   0.166662171   0.166664353
   0.500000448   0.166664295   0.499999786
   0.499999752   0.166662222   0.833335831
   0.500001051   0.500001051   0.166668124
   0.500001010   0.500001010   0.499999545
   0.499999977   0.499999977   0.833332331
   0.499997191   0.833340521   0.166663368
   0.499997377   0.833338309   0.500000811
   0.500000144   0.833338057   0.833335814
   0.833469009   0.166535808   0.166614358
   0.833340412   0.166662121   0.500006738
   0.833477227   0.166531039   0.833378516
   0.833340521   0.499997192   0.166663367
   0.833338309   0.499997377   0.500000812
   0.833338057   0.500000144   0.833335814
   0.833467127   0.833467126   0.166488539
   0.833346347   0.833346348   0.499988829
   0.833467214   0.833467214   0.833521759
   0.101598312   0.101598312   0.000022321
   0.101462227   0.101462227   0.666584163
   0.101441248   0.434774230   0.000001381
   0.101441583   0.434768553   0.333332145
   0.101439546   0.434773174   0.666666460
   0.101456607   0.768072726   0.000000028
   0.101439511   0.768086312   0.333355175
   0.101436820   0.768083266   0.666643735
   0.434774230   0.101441248   0.000001381
   0.434768553   0.101441583   0.333332145
   0.434773174   0.101439545   0.666666460
   0.434771794   0.434771794   0.999999269
   0.434772437   0.434772437   0.333332864
   0.434771587   0.434771587   0.666667877
   0.434772657   0.768104409   0.999999652
   0.434773181   0.768104989   0.333332571
   0.434772906   0.768105082   0.666667775
   0.768072726   0.101456607   0.000000028
   0.768086312   0.101439511   0.333355175
   0.768083266   0.101436820   0.666643735
   0.768104409   0.434772657   0.999999653
   0.768104989   0.434773181   0.333332571
   0.768105082   0.434772906   0.666667775
   0.768039217   0.768039217   0.000000333
   0.768106930   0.768106930   0.333325843
   0.768109330   0.768109330   0.666673634
   0.231967756   0.231967756   0.000007671
   0.231691658   0.231691659   0.333327298
   0.231899496   0.231899496   0.666668017
   0.231894984   0.565227998   0.000000623
   0.231894255   0.565228602   0.333332531
   0.231894314   0.565227808   0.666666844
   0.231923847   0.898540014   0.999999288
   0.231901355   0.898587342   0.333354680
   0.231913978   0.898559129   0.666645653
   0.565227998   0.231894984   0.000000623
   0.565228602   0.231894255   0.333332531
   0.565227808   0.231894314   0.666666844
   0.565227431   0.565227432   0.000000083
   0.565227392   0.565227392   0.333332893
   0.565227753   0.565227754   0.666667024
   0.565227569   0.898559497   0.999999820
   0.565229284   0.898561256   0.333332364
   0.565228967   0.898561407   0.666667813
   0.898540014   0.231923847   0.999999288
   0.898587342   0.231901355   0.333354680
   0.898559129   0.231913978   0.666645653
   0.898559497   0.565227569   0.999999820
   0.898561256   0.565229284   0.333332364
   0.898561407   0.565228967   0.666667814
   0.898393540   0.898393540   0.000000017
   0.898539211   0.898539211   0.333398620
   0.898533749   0.898533749   0.666593441
   0.065233788   0.268068556   0.166768456
   0.065240050   0.268035309   0.499924014
   0.065210290   0.268144543   0.833307612
   0.065228500   0.601439490   0.166667698
   0.065228455   0.601439198   0.500000545
   0.065228267   0.601440020   0.833331742
   0.065373746   0.934728378   0.167049130
   0.065239962   0.934840613   0.499933041
   0.065357044   0.934639246   0.833035168
   0.398554438   0.268100512   0.166671744
   0.398557139   0.268102341   0.499994114
   0.398565672   0.268105580   0.833334149
   0.398560516   0.601439834   0.166666868
   0.398561039   0.601439314   0.499999715
   0.398560409   0.601439755   0.833333418
   0.398554893   0.934776005   0.166674390
   0.398555350   0.934775872   0.499993638
   0.398562394   0.934771216   0.833331958
   0.731898395   0.268100940   0.166666554
   0.731893489   0.268105799   0.499999670
   0.731898391   0.268100852   0.833333933
   0.731896791   0.601440739   0.166666060
   0.731895004   0.601438063   0.499999953
   0.731896535   0.601440958   0.833333987
   0.731859333   0.934782879   0.166690165
   0.731898391   0.934773481   0.500002708
   0.731861522   0.934782018   0.833307156
   0.268068556   0.065233788   0.166768456
   0.268035309   0.065240050   0.499924014
   0.268144543   0.065210290   0.833307612
   0.268100512   0.398554438   0.166671744
   0.268102341   0.398557139   0.499994114
   0.268105580   0.398565672   0.833334149
   0.268100940   0.731898395   0.166666554
   0.268105799   0.731893489   0.499999670
   0.268100852   0.731898392   0.833333933
   0.601439490   0.065228500   0.166667698
   0.601439198   0.065228455   0.500000545
   0.601440020   0.065228267   0.833331742
   0.601439834   0.398560516   0.166666867
   0.601439314   0.398561039   0.499999715
   0.601439755   0.398560409   0.833333417
   0.601440739   0.731896791   0.166666060
   0.601438063   0.731895004   0.499999953
   0.601440958   0.731896535   0.833333987
   0.934728378   0.065373746   0.167049130
   0.934840613   0.065239962   0.499933041
   0.934639246   0.065357044   0.833035167
   0.934776005   0.398554893   0.166674390
   0.934775872   0.398555350   0.499993638
   0.934771216   0.398562394   0.833331958
   0.934782880   0.731859333   0.166690165
   0.934773481   0.731898391   0.500002709
   0.934782018   0.731861522   0.833307156
H107LiMg53
   1.00000000
   13.503222630   0.000038174  -0.000001793
   0.000038174   13.503222627  -0.000001793
  -0.000001199  -0.000001199   9.029764543
  Li  Mg  H
  1  53  107
Direct configuration=     2
   0.999918338   0.999918338   0.999957440
   0.997703197   0.997703196   0.328193923
   0.999865147   0.999865143   0.672137973
   0.999954680   0.332935358   0.999934816
   0.999803966   0.333496563   0.333254838
   0.999923514   0.333137982   0.666808640
   0.999987061   0.666990131   0.999978284
   0.000030414   0.666809248   0.333265409
   0.000014973   0.666785496   0.666758570
   0.332935357   0.999954675   0.999934814
   0.333496562   0.999803968   0.333254843
   0.333137986   0.999923510   0.666808641
   0.333196049   0.333196053   0.000065293
   0.333536649   0.333536651   0.333273615
   0.333181072   0.333181073   0.666663053
   0.333245235   0.666763773   0.000007284
   0.333326229   0.666676195   0.333345949
   0.333316074   0.666693852   0.666646603
   0.666990131   0.999987065   0.999978289
   0.666809245   0.000030411   0.333265405
   0.666785494   0.000014973   0.666758577
   0.666763774   0.333245234   0.000007292
   0.666676194   0.333326233   0.333345956
   0.666693852   0.333316074   0.666646605
   0.666702576   0.666702576   0.000002305
   0.666722640   0.666722641   0.333283451
   0.666727785   0.666727786   0.666713983
   0.167106345   0.167106344   0.159424494
   0.168585146   0.168585148   0.505274579
   0.165176053   0.165176059   0.835432002
   0.166606549   0.500009756   0.166634488
   0.166632224   0.500006779   0.499997695
   0.166607790   0.500002994   0.833367450
   0.165144700   0.834923105   0.166090225
   0.166590402   0.833448282   0.500073765
   0.165096402   0.835001116   0.833831428
   0.500009758   0.166606548   0.166634489
   0.500006777   0.166632223   0.499997692
   0.500002996   0.166607790   0.833367454
   0.500015000   0.500015002   0.166676495
   0.500014567   0.500014563   0.499997993
   0.499999560   0.499999563   0.833325560
   0.499965495   0.833423764   0.166623525
   0.499969685   0.833397222   0.500009115
   0.500002080   0.833393534   0.833367256
   0.834923103   0.165144703   0.166090224
   0.833448281   0.166590404   0.500073771
   0.835001116   0.165096404   0.833831431
   0.833423760   0.499965497   0.166623526
   0.833397224   0.499969683   0.500009114
   0.833393538   0.500002079   0.833367265
   0.834930715   0.834930715   0.164588439
   0.833466298   0.833466300   0.499877138
   0.834937167   0.834937167   0.835520112
   0.103370304   0.103370300   0.000203576
   0.101774175   0.101774174   0.665732383
   0.101525234   0.434842743   0.000020447
   0.101538438   0.434784882   0.333323010
   0.101507726   0.434834391   0.666656231
   0.101721527   0.767779853   0.000004138
   0.101521521   0.767929321   0.333608166
   0.101489447   0.767892138   0.666374637
   0.434842742   0.101525236   0.000020445
   0.434784882   0.101538440   0.333323010
   0.434834390   0.101507725   0.666656232
   0.434820157   0.434820156   0.999993007
   0.434838524   0.434838523   0.333330857
   0.434817795   0.434817794   0.666676247
   0.434838285   0.768153959   0.999996546
   0.434843668   0.768161511   0.333328472
   0.434840689   0.768162456   0.666674961
   0.767779851   0.101721524   0.000004138
   0.767929321   0.101521521   0.333608166
   0.767892138   0.101489446   0.666374638
   0.768153961   0.434838283   0.999996546
   0.768161510   0.434843669   0.333328472
   0.768162455   0.434840688   0.666674956
   0.767362246   0.767362247   0.000005657
   0.768213521   0.768213520   0.333190229
   0.768236332   0.768236333   0.666801705
   0.232763194   0.232763192   0.999987288
   0.229334110   0.229334112   0.333206269
   0.231914250   0.231914250   0.666847188
   0.231839547   0.565170016   0.000008764
   0.231830265   0.565177615   0.333328071
   0.231831070   0.565168503   0.666663180
   0.232182852   0.898237785   0.999992514
   0.231918690   0.898808931   0.333605065
   0.232077931   0.898462050   0.666399363
   0.565170016   0.231839547   0.000008762
   0.565177614   0.231830265   0.333328066
   0.565168502   0.231831069   0.666663183
   0.565167489   0.565167488   0.000000864
   0.565165909   0.565165909   0.333331231
   0.565171517   0.565171518   0.666667888
   0.565172176   0.898480985   0.999998341
   0.565188904   0.898500075   0.333326046
   0.565184707   0.898500864   0.666675591
   0.898237784   0.232182851   0.999992515
   0.898808932   0.231918690   0.333605065
   0.898462049   0.232077930   0.666399360
   0.898480986   0.565172175   0.999998339
   0.898500076   0.565188904   0.333326047
   0.898500866   0.565184707   0.666675589
   0.896536707   0.896536707   0.000009032
   0.898180577   0.898180577   0.334106632
   0.898179969   0.898179968   0.665790551
   0.065230793   0.267708006   0.167897561
   0.065301052   0.267305687   0.499074900
   0.064966579   0.268634593   0.833027535
   0.065179154   0.601509860   0.166672523
   0.065175783   0.601507865   0.500006629
   0.065176636   0.601515801   0.833320735
   0.066908929   0.934367011   0.171301636
   0.065299272   0.935711970   0.499169880
   0.066667040   0.933285361   0.829736913
   0.398407779   0.268100311   0.166741246
   0.398437080   0.268123095   0.499915152
   0.398552526   0.268168194   0.833343982
   0.398491788   0.601512061   0.166664987
   0.398495054   0.601508827   0.499996125
   0.398490855   0.601511879   0.833338898
   0.398415418   0.934881137   0.166751045
   0.398419932   0.934881803   0.499925285
   0.398514512   0.934815755   0.833323447
   0.731923378   0.268069058   0.166664066
   0.731821727   0.268169966   0.499995252
   0.731924300   0.268066423   0.833342506
   0.731861575   0.601518845   0.166658640
   0.731839430   0.601489886   0.499999725
   0.731857570   0.601522752   0.833341637
   0.731413793   0.934954327   0.166947144
   0.731880744   0.934847334   0.500030645
   0.731438351   0.934943682   0.833022296
   0.267708008   0.065230793   0.167897561
   0.267305689   0.065301049   0.499074895
   0.268634591   0.064966578   0.833027533
   0.268100312   0.398407777   0.166741244
   0.268123093   0.398437081   0.499915152
   0.268168196   0.398552524   0.833343981
   0.268069056   0.731923378   0.166664064
   0.268169966   0.731821728   0.499995256
   0.268066422   0.731924301   0.833342503
   0.601509863   0.065179152   0.166672520
   0.601507866   0.065175784   0.500006629
   0.601515802   0.065176637   0.833320732
   0.601512061   0.398491787   0.166664987
   0.601508826   0.398495053   0.499996120
   0.601511877   0.398490858   0.833338892
   0.601518846   0.731861573   0.166658641
   0.601489885   0.731839430   0.499999726
   0.601522753   0.731857570   0.833341637
   0.934367010   0.066908929   0.171301634
   0.935711970   0.065299271   0.499169876
   0.933285361   0.066667038   0.829736910
   0.934881137   0.398415420   0.166751045
   0.934881802   0.398419934   0.499925286
   0.934815753   0.398514514   0.833323447
   0.934954327   0.731413793   0.166947145
   0.934847335   0.731880744   0.500030651
   0.934943681   0.731438352   0.833022293
H107LiMg53
   1.00000000
   13.503245897   0.000040919  -0.000001798
   0.000040919   13.503245893  -0.000001798
  -0.000001202  -0.000001202   9.029749365
  Li  Mg  H
  1  53  107
Direct configuration=     3
   0.999917131   0.999917131   0.999967577
   0.997607302   0.997607301   0.328287880
   0.999864098   0.999864094   0.672061083
   0.999960428   0.332932634   0.999960004
   0.999797475   0.333502754   0.333267960
   0.999923343   0.333131722   0.666770444
   0.999984157   0.666982694   0.999976526
   0.000033319   0.666806609   0.333279771
   0.000016586   0.666782460   0.666746122
   0.332932633   0.999960424   0.999960002
   0.333502753   0.999797477   0.333267963
   0.333131727   0.999923342   0.666770445
   0.333223472   0.333223476   0.000072152
   0.333490101   0.333490103   0.333273299
   0.333185482   0.333185483   0.666656880
   0.333231757   0.666777805   0.000006359
   0.333320738   0.666683952   0.333336039
   0.333309418   0.666701071   0.666657519
   0.666982695   0.999984159   0.999976531
   0.666806606   0.000033316   0.333279767
   0.666782458   0.000016585   0.666746128
   0.666777805   0.333231756   0.000006368
   0.666683951   0.333320742   0.333336046
   0.666701072   0.333309418   0.666657522
   0.666691139   0.666691139   0.000001974
   0.666733009   0.666733009   0.333284157
   0.666739831   0.666739832   0.666713611
   0.167183294   0.167183292   0.159392368
   0.168672795   0.168672797   0.505358481
   0.165146393   0.165146399   0.835364060
   0.166603447   0.500012675   0.166633328
   0.166629577   0.500008079   0.499997891
   0.166605147   0.500008313   0.833368437
   0.165178215   0.834898978   0.166130316
   0.166572048   0.833475841   0.500067354
   0.165142484   0.834954775   0.833797430
   0.500012676   0.166603446   0.166633329
   0.500008078   0.166629576   0.499997888
   0.500008315   0.166605147   0.833368442
   0.500017372   0.500017373   0.166673657
   0.500017039   0.500017034   0.500000688
   0.499999428   0.499999431   0.833325706
   0.499964157   0.833425796   0.166622986
   0.499970240   0.833398967   0.500008688
   0.500002361   0.833394456   0.833368213
   0.834898976   0.165178218   0.166130316
   0.833475839   0.166572050   0.500067357
   0.834954775   0.165142486   0.833797432
   0.833425792   0.499964158   0.166622986
   0.833398968   0.499970237   0.500008686
   0.833394460   0.500002360   0.833368222
   0.834933726   0.834933726   0.164637256
   0.833441324   0.833441325   0.499887328
   0.834946631   0.834946631   0.835457117
   0.103349250   0.103349246   0.000139997
   0.101769567   0.101769566   0.665774976
   0.101520553   0.434833826   0.000024312
   0.101542091   0.434784390   0.333323270
   0.101505340   0.434829105   0.666651965
   0.101730017   0.767781925   0.000007668
   0.101532308   0.767920001   0.333621784
   0.101500214   0.767881372   0.666356346
   0.434833825   0.101520555   0.000024310
   0.434784390   0.101542092   0.333323270
   0.434829104   0.101505340   0.666651966
   0.434817465   0.434817464   0.999994669
   0.434843233   0.434843233   0.333330384
   0.434814605   0.434814604   0.666675075
   0.434842062   0.768155520   0.999997217
   0.434846798   0.768163899   0.333328816
   0.434844090   0.768164589   0.666673944
   0.767781922   0.101730014   0.000007668
   0.767920001   0.101532309   0.333621785
   0.767881372   0.101500212   0.666356348
   0.768155522   0.434842060   0.999997218
   0.768163898   0.434846799   0.333328816
   0.768164588   0.434844090   0.666673939
   0.767346673   0.767346674   0.000006803
   0.768240160   0.768240160   0.333138893
   0.768258428   0.768258428   0.666851500
   0.232824106   0.232824105   0.999873232
   0.229228271   0.229228273   0.333148701
   0.231947625   0.231947625   0.667035292
   0.231838591   0.565166624   0.000010154
   0.231828670   0.565174713   0.333328480
   0.231829553   0.565165704   0.666661389
   0.232183822   0.898228564   0.999993287
   0.231923140   0.898809685   0.333622008
   0.232091225   0.898450650   0.666383345
   0.565166625   0.231838592   0.000010153
   0.565174712   0.231828670   0.333328476
   0.565165703   0.231829552   0.666661393
   0.565167407   0.565167405   0.000000692
   0.565165762   0.565165762   0.333330770
   0.565172344   0.565172344   0.666668525
   0.565175077   0.898483424   0.999998869
   0.565188603   0.898501143   0.333326726
   0.565184083   0.898500895   0.666674389
   0.898228563   0.232183821   0.999993288
   0.898809686   0.231923140   0.333622009
   0.898450650   0.232091225   0.666383342
   0.898483424   0.565175075   0.999998868
   0.898501143   0.565188602   0.333326727
   0.898500897   0.565184084   0.666674387
   0.896557139   0.896557138   0.000017149
   0.898118041   0.898118040   0.334107703
   0.898186515   0.898186514   0.665783559
   0.065220252   0.267687927   0.167924575
   0.065286341   0.267277638   0.499051699
   0.064968751   0.268641640   0.833022935
   0.065178677   0.601509658   0.166670060
   0.065172685   0.601508799   0.500006807
   0.065176434   0.601515249   0.833323078
   0.066925735   0.934421953   0.171420957
   0.065288486   0.935776564   0.499132606
   0.066632665   0.933315834   0.829652998
   0.398398855   0.268094348   0.166758121
   0.398424256   0.268117756   0.499901437
   0.398554557   0.268170249   0.833341194
   0.398492298   0.601511301   0.166664123
   0.398493631   0.601509986   0.499995751
   0.398491650   0.601511851   0.833340125
   0.398408236   0.934887686   0.166747963
   0.398412177   0.934890440   0.499925746
   0.398516375   0.934814853   0.833325934
   0.731958439   0.268034378   0.166666406
   0.731821201   0.268170647   0.499994355
   0.731959719   0.268030694   0.833341014
   0.731860935   0.601513089   0.166661792
   0.731838242   0.601487502   0.499999986
   0.731856082   0.601518229   0.833338215
   0.731409226   0.934953905   0.166952548
   0.731880272   0.934850600   0.500029396
   0.731432623   0.934942522   0.833017723
   0.267687928   0.065220252   0.167924575
   0.267277640   0.065286338   0.499051694
   0.268641638   0.064968750   0.833022933
   0.268094349   0.398398853   0.166758119
   0.268117754   0.398424257   0.499901437
   0.268170251   0.398554555   0.833341193
   0.268034376   0.731958439   0.166666405
   0.268170649   0.731821199   0.499994359
   0.268030693   0.731959720   0.833341011
   0.601509661   0.065178675   0.166670057
   0.601508799   0.065172687   0.500006806
   0.601515250   0.065176435   0.833323075
   0.601511300   0.398492298   0.166664124
   0.601509984   0.398493632   0.499995746
   0.601511849   0.398491653   0.833340118
   0.601513090   0.731860934   0.166661793
   0.601487501   0.731838242   0.499999987
   0.601518231   0.731856082   0.833338216
   0.934421953   0.066925735   0.171420955
   0.935776564   0.065288485   0.499132602
   0.933315834   0.066632663   0.829652995
   0.934887686   0.398408239   0.166747963
   0.934890440   0.398412177   0.499925747
   0.934814852   0.398516377   0.833325932
   0.934953905   0.731409227   0.166952550
   0.934850601   0.731880272   0.500029401
   0.934942521   0.731432625   0.833017719
H107LiMg53
   1.00000000
   13.503735394   0.000100493  -0.000002122
   0.000100493   13.503735389  -0.000002121
  -0.000001419  -0.000001418   9.029423047
  Li  Mg  H
  1  53  107
Direct configuration=     4
   0.999889558   0.999889555   0.000163003
   0.995523714   0.995523715   0.329626243
   0.999834573   0.999834575   0.671064504
   0.000066126   0.332828956   0.000429127
   0.999652759   0.333638947   0.333503177
   0.999915439   0.332990985   0.666068071
   0.999930794   0.666877771   0.999942520
   0.000092805   0.666765487   0.333538709
   0.000049365   0.666731687   0.666524233
   0.332828947   0.000066123   0.000429127
   0.333638945   0.999652762   0.333503187
   0.332990994   0.999915440   0.666068077
   0.333766979   0.333766986   0.000201761
   0.332595018   0.332595017   0.333253921
   0.333279809   0.333279806   0.666555014
   0.332954446   0.667068282   0.999991948
   0.333209582   0.666839444   0.333149734
   0.333175793   0.666848158   0.666859701
   0.666877738   0.999930772   0.999942525
   0.666765479   0.000092817   0.333538685
   0.666731683   0.000049377   0.666524253
   0.667068281   0.332954447   0.999991936
   0.666839443   0.333209586   0.333149742
   0.666848164   0.333175788   0.666859689
   0.666471141   0.666471147   0.999996710
   0.666946321   0.666946330   0.333285073
   0.666979789   0.666979790   0.666717965
   0.168699628   0.168699630   0.157957003
   0.170552839   0.170552841   0.507536293
   0.164422165   0.164422171   0.834318502
   0.166537000   0.500066800   0.166606190
   0.166575488   0.500032248   0.500003101
   0.166548616   0.500103544   0.833390704
   0.165649887   0.834623719   0.166843743
   0.166207569   0.834029015   0.499950345
   0.165826662   0.834273578   0.833193444
   0.500066804   0.166536998   0.166606186
   0.500032246   0.166575496   0.500003105
   0.500103551   0.166548612   0.833390704
   0.500065397   0.500065399   0.166633183
   0.500066944   0.500066937   0.500045784
   0.499997293   0.499997292   0.833321091
   0.499934424   0.833477785   0.166607680
   0.499975791   0.833441850   0.500001895
   0.500008396   0.833421071   0.833390114
   0.834623706   0.165649858   0.166843744
   0.834029019   0.166207573   0.499950349
   0.834273567   0.165826634   0.833193402
   0.833477780   0.499934428   0.166607685
   0.833441849   0.499975791   0.500001892
   0.833421077   0.500008390   0.833390130
   0.835128408   0.835128405   0.165290427
   0.832954138   0.832954044   0.500099505
   0.835290237   0.835290235   0.834519476
   0.103165238   0.103165235   0.998959820
   0.101739067   0.101739066   0.666460106
   0.101442106   0.434670047   0.000105350
   0.101621552   0.434772556   0.333329342
   0.101466111   0.434730781   0.666562048
   0.101918465   0.767797431   0.000080456
   0.101749891   0.767721186   0.333925578
   0.101717463   0.767652070   0.665955637
   0.434670045   0.101442105   0.000105347
   0.434772553   0.101621550   0.333329339
   0.434730781   0.101466109   0.666562047
   0.434784499   0.434784492   0.000029056
   0.434914512   0.434914512   0.333321335
   0.434760320   0.434760321   0.666650066
   0.434916792   0.768188522   0.000010879
   0.434911465   0.768216612   0.333331877
   0.434913411   0.768210336   0.666657169
   0.767797495   0.101918509   0.000080472
   0.767721185   0.101749885   0.333925576
   0.767652072   0.101717464   0.665955650
   0.768188523   0.434916791   0.000010873
   0.768216613   0.434911466   0.333331867
   0.768210335   0.434913411   0.666657163
   0.766998504   0.766998504   0.000024129
   0.768740245   0.768740247   0.332133270
   0.768689308   0.768689309   0.667829485
   0.234051244   0.234051243   0.997611343
   0.226966032   0.226966036   0.332025431
   0.232596157   0.232596158   0.670741898
   0.231816537   0.565098962   0.000039606
   0.231793321   0.565117056   0.333332764
   0.231794902   0.565107606   0.666627898
   0.232226545   0.898020289   0.000006890
   0.232018896   0.898842743   0.333992700
   0.232368400   0.898215456   0.666033183
   0.565098961   0.231816538   0.000039599
   0.565117055   0.231793319   0.333332762
   0.565107603   0.231794900   0.666627899
   0.565152570   0.565152567   0.999996425
   0.565166521   0.565166520   0.333322018
   0.565187413   0.565187413   0.666681648
   0.565221874   0.898520504   0.000010045
   0.565177067   0.898517822   0.333340995
   0.565167947   0.898496579   0.666649037
   0.898020290   0.232226546   0.000006913
   0.898842744   0.232018899   0.333992707
   0.898215455   0.232368398   0.666033184
   0.898520501   0.565221869   0.000010038
   0.898517819   0.565177062   0.333340993
   0.898496581   0.565167950   0.666649035
   0.896752007   0.896752007   0.000181792
   0.896852563   0.896852567   0.334229297
   0.898276763   0.898276767   0.665519538
   0.065011851   0.267254916   0.168554011
   0.065009359   0.266648452   0.498528870
   0.064979321   0.268833444   0.832898692
   0.065163971   0.601512398   0.166624790
   0.065109178   0.601527629   0.500011472
   0.065167105   0.601512502   0.833364754
   0.067457824   0.935423472   0.174199035
   0.065114213   0.937097468   0.498337593
   0.066167706   0.933696545   0.827677720
   0.398203711   0.267968115   0.167104487
   0.398145865   0.268000546   0.499618289
   0.398611657   0.268219494   0.833286732
   0.398479165   0.601519858   0.166639997
   0.398457392   0.601541450   0.499989996
   0.398483737   0.601534871   0.833369878
   0.398258345   0.935021402   0.166702057
   0.398256838   0.935063146   0.499924249
   0.398542611   0.934806201   0.833371061
   0.732617900   0.267382931   0.166714558
   0.731815657   0.268179401   0.499975969
   0.732617829   0.267364725   0.833310680
   0.731841722   0.601406808   0.166725497
   0.731811754   0.601454935   0.500004852
   0.731820928   0.601436825   0.833269507
   0.731275037   0.934966154   0.167084845
   0.731872058   0.934918063   0.500011515
   0.731279003   0.934937085   0.832895440
   0.267254929   0.065011838   0.168554011
   0.266648455   0.065009359   0.498528862
   0.268833439   0.064979318   0.832898686
   0.267968117   0.398203710   0.167104484
   0.268000542   0.398145871   0.499618297
   0.268219494   0.398611660   0.833286732
   0.267382922   0.732617904   0.166714558
   0.268179396   0.731815653   0.499975967
   0.267364720   0.732617835   0.833310674
   0.601512400   0.065163962   0.166624804
   0.601527630   0.065109178   0.500011467
   0.601512496   0.065167109   0.833364752
   0.601519862   0.398479163   0.166639995
   0.601541448   0.398457395   0.499989992
   0.601534865   0.398483744   0.833369906
   0.601406815   0.731841715   0.166725503
   0.601454934   0.731811753   0.500004851
   0.601436827   0.731820927   0.833269505
   0.935423466   0.067457825   0.174199031
   0.937097471   0.065114209   0.498337593
   0.933696535   0.066167708   0.827677720
   0.935021399   0.398258347   0.166702064
   0.935063147   0.398256837   0.499924253
   0.934806202   0.398542613   0.833371060
   0.934966153   0.731275039   0.167084845
   0.934918024   0.731872099   0.500011522
   0.934937086   0.731279001   0.832895437
H107LiMg53
   1.00000000
   13.503778138   0.000106070  -0.000002138
   0.000106070   13.503778133  -0.000002137
  -0.000001430  -0.000001429   9.029398136
  Li  Mg  H
  1  53  107
Direct configuration=     5
   0.999892815   0.999892812   0.000177014
   0.995427563   0.995427564   0.329742783
   0.999838693   0.999838695   0.670937028
   0.000070653   0.332813552   0.000441945
   0.999647716   0.333644399   0.333504874
   0.999918452   0.332984029   0.666053438
   0.999932526   0.666878064   0.999943071
   0.000096102   0.666758629   0.333540294
   0.000051387   0.666724945   0.666521991
   0.332813544   0.000070652   0.000441944
   0.333644398   0.999647719   0.333504884
   0.332984038   0.999918454   0.666053443
   0.333821517   0.333821523   0.000199592
   0.332533741   0.332533739   0.333245657
   0.333309780   0.333309777   0.666566975
   0.332932652   0.667092203   0.999993780
   0.333199515   0.666852079   0.333144825
   0.333165626   0.666860490   0.666862800
   0.666878032   0.999932505   0.999943076
   0.666758620   0.000096113   0.333540268
   0.666724939   0.000051399   0.666522005
   0.667092202   0.332932652   0.999993770
   0.666852077   0.333199519   0.333144833
   0.666860497   0.333165620   0.666862789
   0.666457911   0.666457917   0.999997311
   0.666964134   0.666964143   0.333277542
   0.666992501   0.666992502   0.666724793
   0.168759551   0.168759552   0.157822032
   0.170634727   0.170634728   0.507653591