H107LiMg53
   1.00000000
   13.503017613  -0.000000039   0.000000000
  -0.000000039   13.503017612  -0.000000000
   0.000000000  -0.000000000   9.029981754
  Li  Mg  H
  1  53  107
Direct configuration=     1
   0.999996213   0.000003787   1.000000000
   0.999831657   0.000168342   0.332465433
   0.999831657   0.000168342   0.667534568
   0.000000418   0.333303266   1.000000000
   0.999998462   0.333321123   0.333326937
   0.999998462   0.333321123   0.666673063
   0.999994560   0.666699082   1.000000000
   0.999994967   0.666674387   0.333318292
   0.999994967   0.666674387   0.666681708
   0.333300918   0.000005440   0.000000000
   0.333325613   0.000005032   0.333318292
   0.333325613   0.000005032   0.666681708
   0.333329447   0.333329763   1.000000000
   0.333326811   0.333326642   0.333328235
   0.333326811   0.333326642   0.666671765
   0.333325111   0.666674889   0.000000000
   0.333330746   0.666669254   0.333344875
   0.333330746   0.666669254   0.666655124
   0.666696734   0.999999582   0.000000000
   0.666678876   0.000001537   0.333326937
   0.666678877   0.000001537   0.666673063
   0.666672981   0.333327019   1.000000000
   0.666666699   0.333333301   0.333335706
   0.666666700   0.333333301   0.666664294
   0.666670237   0.666670553   1.000000000
   0.666673358   0.666673189   0.333328235
   0.666673358   0.666673189   0.666671765
   0.166538112   0.166529157   0.166474444
   0.166668865   0.166679688   0.500000000
   0.166538112   0.166529157   0.833525556
   0.166662130   0.499999135   0.166662308
   0.166663016   0.500000506   0.500000000
   0.166662130   0.499999135   0.833337692
   0.166540889   0.833459110   0.166584125
   0.166841014   0.833158985   0.500000000
   0.166540889   0.833459110   0.833415875
   0.499999580   0.166662076   0.166664616
   0.500001019   0.166664924   0.500000000
   0.499999580   0.166662076   0.833335384
   0.499999846   0.500000154   0.166667877
   0.500000233   0.499999767   0.500000000
   0.499999846   0.500000154   0.833332123
   0.500000865   0.833337870   0.166662308
   0.499999494   0.833336984   0.500000000
   0.500000865   0.833337870   0.833337691
   0.833481974   0.166518025   0.166625255
   0.833320096   0.166679904   0.500000000
   0.833481974   0.166518025   0.833374745
   0.833337923   0.500000420   0.166664617
   0.833335076   0.499998981   0.500000000
   0.833337923   0.500000420   0.833335384
   0.833470843   0.833461888   0.166474444
   0.833320312   0.833331136   0.500000000
   0.833470843   0.833461888   0.833525556
   0.101611246   0.101612093   0.000000000
   0.101458173   0.101406462   0.333473235
   0.101458173   0.101406462   0.666526765
   0.101440657   0.434773200   0.000000000
   0.101438742   0.434771670   0.333331845
   0.101438742   0.434771670   0.666668155
   0.101458059   0.768073263   0.000000000
   0.101416442   0.768142743   0.333426756
   0.101416442   0.768142743   0.666573244
   0.434773322   0.101440065   1.000000000
   0.434772645   0.101438851   0.333332818
   0.434772645   0.101438851   0.666667181
   0.434772311   0.434772367   0.000000000
   0.434771757   0.434771803   0.333332946
   0.434771757   0.434771803   0.666667054
   0.434773117   0.768104550   1.000000000
   0.434775136   0.768106029   0.333330398
   0.434775136   0.768106028   0.666669602
   0.768067545   0.101458617   0.000000000
   0.768087944   0.101434914   0.333361102
   0.768087944   0.101434914   0.666638897
   0.768105185   0.434772490   0.000000000
   0.768105746   0.434772838   0.333332833
   0.768105746   0.434772838   0.666667167
   0.768037089   0.768038909   0.000000000
   0.768114154   0.768113165   0.333331474
   0.768114154   0.768113165   0.666668526
   0.231961091   0.231962911   0.000000000
   0.231886835   0.231885846   0.333331474
   0.231886835   0.231885846   0.666668526
   0.231895450   0.565226883   0.000000000
   0.231893971   0.565224864   0.333330398
   0.231893971   0.565224864   0.666669602
   0.231926738   0.898541942   1.000000000
   0.231857258   0.898583559   0.333426756
   0.231857258   0.898583559   0.666573244
   0.565227511   0.231894815   0.000000000
   0.565227162   0.231894254   0.333332833
   0.565227162   0.231894254   0.666667167
   0.565227633   0.565227689   0.000000000
   0.565228197   0.565228243   0.333332946
   0.565228197   0.565228243   0.666667054
   0.565226801   0.898559344   1.000000000
   0.565228330   0.898561258   0.333331844
   0.565228330   0.898561258   0.666668156
   0.898541383   0.231932455   0.000000000
   0.898565086   0.231912057   0.333361102
   0.898565086   0.231912057   0.666638898
   0.898559935   0.565226678   0.000000000
   0.898561150   0.565227355   0.333332819
   0.898561150   0.565227355   0.666667182
   0.898387907   0.898388754   0.000000000
   0.898593539   0.898541827   0.333473235
   0.898593539   0.898541827   0.666526765
   0.065216783   0.268138400   0.166693305
   0.065224097   0.268096400   0.500000000
   0.065216783   0.268138400   0.833306695
   0.065229477   0.601439377   0.166668004
   0.065227133   0.601441086   0.500000000
   0.065229477   0.601439377   0.833331996
   0.065352754   0.934647246   0.166995387
   0.065352754   0.934647246   0.833004613
   0.398559440   0.268104179   0.166665662
   0.398562217   0.268106240   0.500000000
   0.398559440   0.268104179   0.833334338
   0.398560283   0.601439717   0.166667084
   0.398562494   0.601437506   0.500000000
   0.398560283   0.601439717   0.833332916
   0.398560623   0.934770523   0.166668004
   0.398558914   0.934772867   0.500000000
   0.398560623   0.934770523   0.833331996
   0.731899383   0.268100617   0.166665135
   0.731893990   0.268106011   0.500000000
   0.731899383   0.268100617   0.833334865
   0.731895821   0.601440560   0.166665662
   0.731893760   0.601437784   0.500000000
   0.731895821   0.601440559   0.833334338
   0.731861600   0.934783217   0.166693305
   0.731903600   0.934775903   0.500000000
   0.731861600   0.934783217   0.833306695
   0.268139833   0.065215543   0.166690210
   0.268073996   0.065213105   0.500000000
   0.268139833   0.065215543   0.833309790
   0.268103632   0.398559577   0.166665841
   0.268105516   0.398562646   0.500000000
   0.268103632   0.398559578   0.833334160
   0.268101174   0.731898826   0.166665649
   0.268103460   0.731896540   0.500000000
   0.268101174   0.731898826   0.833334351
   0.601439763   0.065228403   0.166668628
   0.601438323   0.065228532   0.500000000
   0.601439763   0.065228403   0.833331372
   0.601439461   0.398560539   0.166666656
   0.601439276   0.398560724   0.500000000
   0.601439461   0.398560539   0.833333344
   0.601440423   0.731896368   0.166665840
   0.601437355   0.731894484   0.500000000
   0.601440423   0.731896368   0.833334160
   0.934642859   0.065357141   0.166983357
   0.934973819   0.065026181   0.500000000
   0.934642859   0.065357141   0.833016642
   0.934771597   0.398560237   0.166668628
   0.934771468   0.398561677   0.500000000
   0.934771597   0.398560237   0.833331372
   0.934784457   0.731860167   0.166690211
   0.934786895   0.731926004   0.500000000
   0.934784457   0.731860167   0.833309789
H107LiMg53
   1.00000000
   13.503229876  -0.000002943   0.000000000
  -0.000002943   13.503229874  -0.000000000
   0.000000000  -0.000000000   9.029769778
  Li  Mg  H
  1  53  107
Direct configuration=     2
   0.999956927   0.000043082   0.000000009
   0.997906322   0.002093684   0.323072450
   0.997906323   0.002093686   0.676927561
   0.000009435   0.332995922   0.000000006
   0.999982120   0.333197674   0.333276278
   0.999982118   0.333197675   0.666723701
   0.999929968   0.667034186   0.000000008
   0.999943882   0.666761751   0.333181212
   0.999943886   0.666761749   0.666818801
   0.332965811   0.000070032   0.000000011
   0.333238241   0.000056132   0.333181206
   0.333238239   0.000056130   0.666818806
   0.333303596   0.333307396   0.000000013
   0.333248485   0.333246086   0.333278604
   0.333248482   0.333246088   0.666721403
   0.333229092   0.666770882   0.000000006
   0.333306482   0.666693515   0.333450689
   0.333306481   0.666693519   0.666549307
   0.667004092   0.999990570   0.999999999
   0.666802329   0.000017871   0.333276274
   0.666802326   0.000017876   0.666723705
   0.666750934   0.333249040   0.000000005
   0.666667817   0.333332180   0.333351549
   0.666667817   0.333332177   0.666648445
   0.666692613   0.666696434   0.000000009
   0.666753917   0.666751502   0.333278604
   0.666753916   0.666751502   0.666721405
   0.165136473   0.165025235   0.164477476
   0.166716147   0.166844875   0.500000003
   0.165136473   0.165025233   0.835522524
   0.166607607   0.499989175   0.166609228
   0.166617075   0.500004014   0.500000005
   0.166607606   0.499989174   0.833390793
   0.165225907   0.834774078   0.165747254
   0.168810212   0.831189787   0.499999999
   0.165225909   0.834774075   0.834252733
   0.499996267   0.166607819   0.166636994
   0.500010443   0.166643102   0.500000010
   0.499996268   0.166607825   0.833362990
   0.499998269   0.500001712   0.166676700
   0.500004405   0.499995576   0.500000005
   0.499998262   0.500001712   0.833323296
   0.500010792   0.833392403   0.166609218
   0.499995999   0.833382924   0.500000003
   0.500010795   0.833392404   0.833390800
   0.835029495   0.164970510   0.166223522
   0.833241343   0.166758658   0.500000006
   0.835029497   0.164970508   0.833776486
   0.833392158   0.500003747   0.166637016
   0.833356910   0.499989563   0.500000006
   0.833392160   0.500003750   0.833362971
   0.834974761   0.834863528   0.164477472
   0.833155149   0.833283824   0.500000004
   0.834974759   0.834863528   0.835522525
   0.103497537   0.103511687   0.000000003
   0.101736054   0.101087674   0.335004897
   0.101736051   0.101087672   0.664995103
   0.101519593   0.434834753   0.000000002
   0.101499943   0.434821015   0.333319649
   0.101499943   0.434821018   0.666680338
   0.101735564   0.767781988   0.000000004
   0.101224379   0.768620448   0.334484321
   0.101224378   0.768620450   0.665515685
   0.434837015   0.101512813   0.000000010
   0.434833837   0.101502409   0.333331991
   0.434833838   0.101502409   0.666668011
   0.434829700   0.434830031   0.000000003
   0.434822068   0.434821916   0.333331626
   0.434822067   0.434821916   0.666668363
   0.434842497   0.768154035   0.999999999
   0.434864451   0.768171992   0.333304205
   0.434864450   0.768171993   0.666695792
   0.767721640   0.101744048   0.000000000
   0.767960220   0.101460962   0.333691118
   0.767960219   0.101460963   0.666308876
   0.768162032   0.434836191   0.000000006
   0.768169384   0.434838793   0.333332104
   0.768169387   0.434838795   0.666667890
   0.767340578   0.767362495   0.000000005
   0.768296561   0.768284176   0.333256703
   0.768296561   0.768284175   0.666743282
   0.232637506   0.232659423   0.000000001
   0.231715856   0.231703467   0.333256708
   0.231715858   0.231703470   0.666743278
   0.231845994   0.565157529   0.999999996
   0.231828021   0.565135557   0.333304206
   0.231828021   0.565135558   0.666695790
   0.232218018   0.898264430   0.000000002
   0.231379552   0.898775620   0.334484329
   0.231379555   0.898775622   0.665515674
   0.565163831   0.231837990   0.000000005
   0.565161226   0.231830635   0.333332108
   0.565161222   0.231830632   0.666667887
   0.565169976   0.565170308   0.000000006
   0.565178089   0.565177935   0.333331623
   0.565178092   0.565177935   0.666668363
   0.565165246   0.898480404   0.999999998
   0.565178987   0.898500060   0.333319654
   0.565178986   0.898500061   0.666680341
   0.898255944   0.232278358   0.000000001
   0.898539041   0.232039779   0.333691111
   0.898539039   0.232039779   0.666308880
   0.898487197   0.565162993   0.000000007
   0.898497561   0.565166134   0.333331996
   0.898497561   0.565166133   0.666668010
   0.896488297   0.896502439   0.000000004
   0.898912318   0.898263935   0.335004904
   0.898912320   0.898263937   0.664995097
   0.065045561   0.268551759   0.166984199
   0.065120635   0.268059939   0.500000006
   0.065045561   0.268551760   0.833015817
   0.065191474   0.601511525   0.166677489
   0.065159973   0.601532354   0.499999999
   0.065191471   0.601511526   0.833322484
   0.066610927   0.933389082   0.170565738
   0.066610923   0.933389081   0.829434249
   0.398482340   0.268150389   0.166654929
   0.398512117   0.268175282   0.500000002
   0.398482343   0.268150388   0.833345062
   0.398488320   0.601511678   0.166668956
   0.398505952   0.601494041   0.500000006
   0.398488321   0.601511677   0.833331041
   0.398488491   0.934808514   0.166677483
   0.398467662   0.934840019   0.500000001
   0.398488491   0.934808510   0.833322489
   0.731939064   0.268060929   0.166648038
   0.731822201   0.268177800   0.500000007
   0.731939066   0.268060929   0.833351959
   0.731849620   0.601517642   0.166654933
   0.731824720   0.601487869   0.500000001
   0.731849621   0.601517640   0.833345058
   0.731448239   0.934954427   0.166984200
   0.731940048   0.934879373   0.500000008
   0.731448241   0.934954425   0.833015816
   0.268574110   0.065027941   0.166943323
   0.267783716   0.064984948   0.499999999
   0.268574112   0.065027938   0.833056676
   0.268143833   0.398483604   0.166656890
   0.268165912   0.398517261   0.500000002
   0.268143837   0.398483604   0.833343089
   0.268070236   0.731929761   0.166658239
   0.268202230   0.731797774   0.500000004
   0.268070238   0.731929759   0.833341762
   0.601512709   0.065178478   0.166684934
   0.601497416   0.065177263   0.500000006
   0.601512707   0.065178478   0.833315061
   0.601506712   0.398493290   0.166661963
   0.601508808   0.398491188   0.500000003
   0.601506711   0.398493291   0.833338041
   0.601516400   0.731856159   0.166656882
   0.601482714   0.731834106   0.500000001
   0.601516399   0.731856156   0.833343103
   0.933297381   0.066702623   0.170318270
   0.937311064   0.062688935   0.500000000
   0.933297383   0.066702622   0.829681717
   0.934821537   0.398487268   0.166684932
   0.934822729   0.398502587   0.500000005
   0.934821534   0.398487270   0.833315061
   0.934972059   0.731425900   0.166943312
   0.935015027   0.732216317   0.499999997
   0.934972060   0.731425899   0.833056684
H107LiMg53
   1.00000000
   13.503246002  -0.000006302   0.000000000
  -0.000006302   13.503246000  -0.000000000
   0.000000000  -0.000000000   9.029763930
  Li  Mg  H
  1  53  107
Direct configuration=     3
   0.999961570   0.000038438   0.000000009
   0.997902069   0.002097934   0.323400411
   0.997902070   0.002097937   0.676599597
   0.000013016   0.333017677   0.000000006
   0.999982655   0.333206477   0.333291415
   0.999982653   0.333206479   0.666708568
   0.999927196   0.667013764   0.000000007
   0.999948586   0.666766650   0.333205729
   0.999948590   0.666766648   0.666794281
   0.332986233   0.000072803   0.000000010
   0.333233343   0.000051426   0.333205724
   0.333233341   0.000051424   0.666794285
   0.333316295   0.333319999   0.000000012
   0.333239859   0.333237136   0.333281383
   0.333239856   0.333237138   0.666718622
   0.333221476   0.666778504   0.000000006
   0.333308043   0.666691956   0.333425344
   0.333308042   0.666691960   0.666574651
   0.666982331   0.999986987   0.999999999
   0.666793523   0.000017336   0.333291410
   0.666793520   0.000017340   0.666708572
   0.666761372   0.333238604   0.000000005
   0.666672198   0.333327801   0.333338846
   0.666672198   0.333327799   0.666661149
   0.666680010   0.666683733   0.000000007
   0.666762867   0.666760130   0.333281383
   0.666762866   0.666760130   0.666718625
   0.165177552   0.165063699   0.164634599
   0.166738551   0.166863675   0.500000002
   0.165177552   0.165063698   0.835365399
   0.166607304   0.499989000   0.166608714
   0.166615543   0.500002051   0.500000005
   0.166607303   0.499988998   0.833391305
   0.165316116   0.834683870   0.165822542
   0.168820333   0.831179667   0.499999998
   0.165316117   0.834683870   0.834177446
   0.499997376   0.166608376   0.166636216
   0.500008698   0.166644048   0.500000009
   0.499997378   0.166608382   0.833363769
   0.499998428   0.500001554   0.166676147
   0.500005496   0.499994489   0.500000003
   0.499998424   0.500001554   0.833323851
   0.500010970   0.833392706   0.166608704
   0.499997962   0.833384457   0.500000003
   0.500010974   0.833392707   0.833391312
   0.834910718   0.165089286   0.166274377
   0.833291652   0.166708349   0.500000006
   0.834910721   0.165089284   0.833725632
   0.833391602   0.500002635   0.166636235
   0.833355960   0.499991307   0.500000006
   0.833391604   0.500002637   0.833363753
   0.834936297   0.834822449   0.164634597
   0.833136345   0.833261423   0.500000004
   0.834936295   0.834822449   0.835365400
   0.103405069   0.103422076   0.000000003
   0.101730339   0.101065485   0.334970264
   0.101730337   0.101065484   0.665029736
   0.101513924   0.434828222   0.000000003
   0.101497354   0.434818522   0.333320432
   0.101497353   0.434818523   0.666679556
   0.101733110   0.767787790   0.000000004
   0.101217603   0.768618387   0.334494238
   0.101217602   0.768618387   0.665505768
   0.434831231   0.101507512   0.000000009
   0.434831971   0.101500622   0.333333227
   0.434831972   0.101500622   0.666666774
   0.434828285   0.434828353   0.000000003
   0.434819280   0.434818469   0.333331031
   0.434819278   0.434818469   0.666668960
   0.434843015   0.768152640   0.999999999
   0.434862825   0.768170796   0.333306417
   0.434862824   0.768170796   0.666693581
   0.767735241   0.101742738   0.999999999
   0.767964575   0.101464593   0.333705318
   0.767964574   0.101464594   0.666294677
   0.768160813   0.434837859   0.000000006
   0.768168694   0.434839159   0.333332825
   0.768168697   0.434839160   0.666667168
   0.767349551   0.767371209   0.000000004
   0.768314679   0.768301983   0.333209476
   0.768314679   0.768301982   0.666790510
   0.232628791   0.232650449   0.000000001
   0.231698046   0.231685345   0.333209481
   0.231698048   0.231685348   0.666790506
   0.231847383   0.565157006   0.999999996
   0.231829216   0.565137182   0.333306417
   0.231829216   0.565137183   0.666693579
   0.232212215   0.898266883   0.000000001
   0.231381613   0.898782396   0.334494245
   0.231381615   0.898782398   0.665505758
   0.565162161   0.231839207   0.000000004
   0.565160858   0.231831323   0.333332829
   0.565160854   0.231831320   0.666667166
   0.565171653   0.565171722   0.000000004
   0.565181534   0.565180722   0.333331029
   0.565181537   0.565180722   0.666668959
   0.565171777   0.898486074   0.999999998
   0.565181481   0.898502649   0.333320436
   0.565181480   0.898502651   0.666679559
   0.898257258   0.232264760   0.000000000
   0.898535411   0.232035425   0.333705312
   0.898535409   0.232035425   0.666294679
   0.898492496   0.565168775   0.000000006
   0.898499352   0.565168003   0.333333231
   0.898499352   0.565168003   0.666666774
   0.896577911   0.896594908   0.000000004
   0.898934510   0.898269654   0.334970270
   0.898934510   0.898269652   0.665029731
   0.065054364   0.268537287   0.166980916
   0.065117443   0.268063793   0.500000005
   0.065054365   0.268537288   0.833019098
   0.065192880   0.601512013   0.166676261
   0.065159017   0.601532631   0.499999999
   0.065192878   0.601512014   0.833323715
   0.066538891   0.933461118   0.170495194
   0.066538888   0.933461115   0.829504795
   0.398489235   0.268150043   0.166659215
   0.398514490   0.268174357   0.500000001
   0.398489238   0.268150043   0.833340777
   0.398490273   0.601509725   0.166669247
   0.398501293   0.601498700   0.500000006
   0.398490274   0.601509724   0.833330751
   0.398488002   0.934807108   0.166676256
   0.398467384   0.934840976   0.500000001
   0.398488001   0.934807105   0.833323719
   0.731974175   0.268025818   0.166651513
   0.731820441   0.268179560   0.500000006
   0.731974177   0.268025818   0.833348483
   0.731849964   0.601510749   0.166659219
   0.731825645   0.601485498   0.500000001
   0.731849964   0.601510747   0.833340775
   0.731462711   0.934945624   0.166980918
   0.731936198   0.934882562   0.500000007
   0.731462713   0.934945622   0.833019096
   0.268563919   0.065034905   0.166937378
   0.267784948   0.064980095   0.499999999
   0.268563921   0.065034903   0.833062621
   0.268143582   0.398490107   0.166660991
   0.268164415   0.398519557   0.500000001
   0.268143586   0.398490107   0.833338991
   0.268036140   0.731963858   0.166665415
   0.268267326   0.731732677   0.500000004
   0.268036142   0.731963855   0.833334586
   0.601510232   0.065179834   0.166683511
   0.601496483   0.065176309   0.500000005
   0.601510231   0.065179834   0.833316485
   0.601503351   0.398496651   0.166660871
   0.601508119   0.398491877   0.500000003
   0.601503350   0.398496652   0.833339131
   0.601509897   0.731856410   0.166660985
   0.601480421   0.731835602   0.500000001
   0.601509897   0.731856406   0.833339003
   0.933306969   0.066693035   0.170080890
   0.937340474   0.062659525   0.500000000
   0.933306970   0.066693035   0.829919100
   0.934820179   0.398489748   0.166683509
   0.934823686   0.398503518   0.500000004
   0.934820176   0.398489750   0.833316485
   0.934965096   0.731436090   0.166937369
   0.935019884   0.732215081   0.499999998
   0.934965097   0.731436090   0.833062627
H107LiMg53
   1.00000000
   13.503418850  -0.000033451   0.000000000
  -0.000033451   13.503418849  -0.000000000
   0.000000000  -0.000000000   9.029672299
  Li  Mg  H
  1  53  107
Direct configuration=     4
   0.999989346   0.000010660   0.000000007
   0.997466072   0.002533914   0.323991173
   0.997466073   0.002533918   0.676008825
   0.000041039   0.333119780   0.999999999
   0.999983098   0.333249929   0.333394627
   0.999983101   0.333249936   0.666605389
   0.999893593   0.666926022   0.999999997
   0.999973651   0.666822194   0.333364394
   0.999973654   0.666822192   0.666635607
   0.333073972   0.000106394   0.000000000
   0.333177798   0.000026331   0.333364392
   0.333177796   0.000026335   0.666635606
   0.333409353   0.333412864   0.999999998
   0.333156431   0.333150633   0.333290599
   0.333156428   0.333150633   0.666709398
   0.333140529   0.666859488   0.000000002
   0.333319008   0.666681000   0.333246183
   0.333319009   0.666681004   0.666753802
   0.666880216   0.999958950   0.999999998
   0.666750068   0.000016890   0.333394625
   0.666750068   0.000016890   0.666605374
   0.666859837   0.333140154   0.999999999
   0.666706990   0.333293018   0.333246863
   0.666706988   0.333293016   0.666753130
   0.666587145   0.666590667   0.999999994
   0.666849377   0.666843570   0.333290606
   0.666849374   0.666843571   0.666709403
   0.165204781   0.165048953   0.165417344
   0.166921289   0.167041604   0.499999995
   0.165204782   0.165048953   0.834582653
   0.166593264   0.499985385   0.166594300
   0.166593953   0.499987683   0.500000003
   0.166593261   0.499985381   0.833405711
   0.165729481   0.834270514   0.166234405
   0.169309811   0.830690194   0.499999990
   0.165729479   0.834270524   0.833765600
   0.500004472   0.166601226   0.166624871
   0.499996983   0.166646637   0.499999999
   0.500004474   0.166601230   0.833375124
   0.499999400   0.500000593   0.166675532
   0.500013306   0.499986693   0.499999988
   0.499999411   0.500000591   0.833324468
   0.500014612   0.833406738   0.166594302
   0.500012316   0.833406059   0.500000000
   0.500014618   0.833406738   0.833405714
   0.834312779   0.165687223   0.166580972
   0.833670360   0.166329646   0.500000000
   0.834312781   0.165687222   0.833419046
   0.833398766   0.499995535   0.166624868
   0.833353376   0.500003011   0.500000001
   0.833398767   0.499995536   0.833375136
   0.834951037   0.834795205   0.165417355
   0.832958389   0.833078699   0.499999999
   0.834951036   0.834795206   0.834582652
   0.103079728   0.103120793   0.000000001
   0.101744304   0.100827683   0.335021849
   0.101744304   0.100827685   0.664978154
   0.101486891   0.434791213   0.000000001
   0.101489825   0.434809287   0.333324197
   0.101489819   0.434809283   0.666675800
   0.101771578   0.767773733   1.000000000
   0.101126825   0.768700173   0.334791407
   0.101126823   0.768700171   0.665208598
   0.434800655   0.101482055   0.000000002
   0.434828928   0.101498847   0.333343207
   0.434828928   0.101498845   0.666656794
   0.434830437   0.434828774   0.000000000
   0.434806712   0.434800609   0.333326282
   0.434806709   0.434800606   0.666673720
   0.434860147   0.768151464   0.999999995
   0.434868147   0.768175388   0.333316505
   0.434868145   0.768175387   0.666683488
   0.767763812   0.101791388   0.999999995
   0.767973911   0.101495851   0.333889142
   0.767973909   0.101495851   0.666110853
   0.768162266   0.434862356   1.000000000
   0.768175937   0.434854556   0.333336991
   0.768175938   0.434854554   0.666663008
   0.767283645   0.767307166   0.999999999
   0.768490725   0.768473073   0.332828927
   0.768490727   0.768473074   0.667171070
   0.232692833   0.232716351   0.999999999
   0.231526927   0.231509267   0.332828934
   0.231526927   0.231509269   0.667171064
   0.231848534   0.565139848   0.999999992
   0.231824620   0.565131855   0.333316508
   0.231824622   0.565131857   0.666683489
   0.232226265   0.898228411   0.999999994
   0.231299824   0.898873172   0.334791409
   0.231299826   0.898873175   0.665208593
   0.565137653   0.231837742   0.999999999
   0.565145445   0.231824061   0.333336997
   0.565145445   0.231824060   0.666663010
   0.565171222   0.565169563   0.999999998
   0.565199393   0.565193289   0.333326286
   0.565199394   0.565193288   0.666673721
   0.565208782   0.898513105   0.999999995
   0.565190715   0.898510177   0.333324192
   0.565190713   0.898510176   0.666675811
   0.898208621   0.232236197   0.999999996
   0.898504149   0.232026090   0.333889142
   0.898504149   0.232026089   0.666110851
   0.898517945   0.565199340   0.999999999
   0.898501156   0.565171068   0.333343212
   0.898501155   0.565171071   0.666656788
   0.896879208   0.896920270   0.999999998
   0.899172339   0.898255723   0.335021843
   0.899172332   0.898255712   0.664978155
   0.065087335   0.268509213   0.167017541
   0.065073113   0.268084097   0.499999998
   0.065087335   0.268509212   0.832982463
   0.065196302   0.601531162   0.166670663
   0.065139154   0.601552382   0.499999998
   0.065196302   0.601531162   0.833329333
   0.066245618   0.933754388   0.170682799
   0.066245624   0.933754377   0.829317205
   0.398527685   0.268157347   0.166691201
   0.398520259   0.268180568   0.499999999
   0.398527686   0.268157349   0.833308799
   0.398487316   0.601512678   0.166669381
   0.398457873   0.601542117   0.500000003
   0.398487314   0.601512680   0.833330628
   0.398468848   0.934803698   0.166670661
   0.398447636   0.934860835   0.500000001
   0.398468848   0.934803694   0.833329336
   0.732245793   0.267754202   0.166676087
   0.731798552   0.268201450   0.500000003
   0.732245797   0.267754199   0.833323917
   0.731842661   0.601472302   0.166691203
   0.731819425   0.601479750   0.499999998
   0.731842660   0.601472303   0.833308801
   0.731490781   0.934912664   0.167017543
   0.731915904   0.934926888   0.500000000
   0.731490782   0.934912662   0.832982462
   0.268573801   0.065050233   0.166944730
   0.267733489   0.064897585   0.499999998
   0.268573801   0.065050232   0.833055274
   0.268150331   0.398525678   0.166691914
   0.268164075   0.398525668   0.499999998
   0.268150334   0.398525678   0.833308088
   0.267771614   0.732228384   0.166722137
   0.268792842   0.731207158   0.500000003
   0.267771615   0.732228380   0.833277871
   0.601505965   0.065180257   0.166676893
   0.601499618   0.065159304   0.499999997
   0.601505965   0.065180256   0.833323112
   0.601495552   0.398504451   0.166649904
   0.601516668   0.398483328   0.500000000
   0.601495548   0.398504457   0.833350100
   0.601474314   0.731849679   0.166691912
   0.601474334   0.731835925   0.499999999
   0.601474317   0.731849673   0.833308083
   0.933104054   0.066895944   0.168927137
   0.938038977   0.061961019   0.499999997
   0.933104052   0.066895948   0.831072858
   0.934819749   0.398494029   0.166676890
   0.934840694   0.398500384   0.499999994
   0.934819749   0.398494029   0.833323105
   0.934949778   0.731426203   0.166944735
   0.935102421   0.732266511   0.499999999
   0.934949778   0.731426204   0.833055269
H107LiMg53
   1.00000000
   13.503634663  -0.000063702   0.000000000
  -0.000063702   13.503634660  -0.000000000
   0.000000000  -0.000000000   9.029545855
  Li  Mg  H
  1  53  107
Direct configuration=     5
   0.000013901   0.999986103   0.000000005
   0.996780057   0.003219910   0.323453291
   0.996780061   0.003219917   0.676546690
   0.000067786   0.333181280   0.999999994
   0.999980736   0.333281591   0.333487891
   0.999980745   0.333281601   0.666512152
   0.999853709   0.666879089   0.999999989
   0.999991659   0.666889825   0.333505899
   0.999991659   0.666889823   0.666494094
   0.333120906   0.000146272   0.999999991
   0.333110174   0.000008306   0.333505899
   0.333110170   0.000008312   0.666494089
   0.333502526   0.333505907   0.999999990
   0.333059142   0.333049651   0.333289522
   0.333059139   0.333049650   0.666710469
   0.333039729   0.666960328   1.000000000
   0.333336548   0.666663473   0.333062392
   0.333336546   0.666663477   0.666937592
   0.666818695   0.999932194   0.999999995
   0.666718395   0.000019245   0.333487889
   0.666718395   0.000019241   0.666512133
   0.666974917   0.333025088   0.999999993
   0.666744707   0.333255314   0.333160754
   0.666744704   0.333255313   0.666839248
   0.666494098   0.666497492   0.999999980
   0.666950363   0.666940874   0.333289528
   0.666950359   0.666940875   0.666710480
   0.165059799   0.164846327   0.165945005
   0.167115221   0.167242058   0.499999986