Mg28Ni4O32
   1.00000000
   8.440356665   0.000000000   0.000000000
   0.000000000   8.440337996  -0.000000000
   0.000000000  -0.000000000   8.440337996
  Ni  Mg  O
  4  28  32
Direct configuration=     1
   0.999906500   0.000092067   0.000092067
   0.999906500   0.249907933   0.249907933
   0.250093500   0.500092067   0.749907933
   0.250093500   0.749907933   0.500092067
   0.000097740   0.999984929   0.499923503
   0.000097740   0.499923503   0.999984929
   0.000167657   0.500004910   0.500004910
   0.499975746   0.999986735   0.999986735
   0.499916100   0.999915802   0.500017593
   0.499916100   0.500017593   0.999915802
   0.499814217   0.500074250   0.500074250
   0.000097740   0.250015071   0.750076497
   0.000097740   0.750076497   0.250015071
   0.000167657   0.749995090   0.749995090
   0.499975746   0.250013265   0.250013265
   0.499916100   0.250084198   0.749982407
   0.499916100   0.749982407   0.250084198
   0.499814217   0.749925750   0.749925750
   0.249832343   0.000004910   0.249995090
   0.249902260   0.999923503   0.750015071
   0.249902260   0.499984929   0.250076497
   0.750185783   0.000074250   0.249925750
   0.750083900   0.000017593   0.750084198
   0.750083900   0.499915802   0.249982407
   0.750024254   0.499986735   0.750013265
   0.249832343   0.249995090   0.000004910
   0.249902260   0.250076497   0.499984929
   0.249902260   0.750015071   0.999923503
   0.750185783   0.249925750   0.000074250
   0.750083900   0.249982407   0.499915802
   0.750083900   0.750084198   0.000017593
   0.750024254   0.750013265   0.499986735
   0.250207135   0.250018463   0.250018463
   0.249961630   0.249799226   0.749936283
   0.249961630   0.749936283   0.249799226
   0.250022654   0.750117430   0.750117430
   0.749832307   0.249959511   0.249959511
   0.750041081   0.250049623   0.749999045
   0.750041081   0.749999045   0.250049623
   0.749996287   0.749939027   0.749939027
   0.250207135   0.999981537   0.999981537
   0.249961630   0.000200774   0.500063717
   0.249961630   0.500063717   0.000200774
   0.250022654   0.499882570   0.499882570
   0.749832307   0.000040489   0.000040489
   0.750041081   0.999950377   0.500000955
   0.750041081   0.500000955   0.999950377
   0.749996287   0.500060973   0.500060973
   0.999977346   0.250117430   0.999882570
   0.000038370   0.249936283   0.500200774
   0.000038370   0.749799226   0.000063717
   0.999792865   0.750018463   0.499981537
   0.500003713   0.249939027   0.000060973
   0.499958919   0.249999045   0.499950377
   0.499958919   0.750049623   0.000000955
   0.500167693   0.749959511   0.500040489
   0.999977346   0.999882570   0.250117430
   0.000038370   0.000063717   0.749799226
   0.000038370   0.500200774   0.249936283
   0.999792865   0.499981537   0.750018463
   0.500003713   0.000060973   0.249939027
   0.499958919   0.000000955   0.750049623
   0.499958919   0.499950377   0.249999045
   0.500167693   0.500040489   0.749959511
Mg28Ni4O32
   1.00000000
   8.442270326   0.000000000   0.000000000
   0.000000000   8.442152480  -0.000000000
   0.000000000  -0.000000000   8.442152480
  Ni  Mg  O
  4  28  32
Direct configuration=     2
   0.999489614   0.000480769   0.000480769
   0.999489614   0.249519231   0.249519231
   0.250510386   0.500480769   0.749519231
   0.250510386   0.749519231   0.500480769
   0.000545885   0.999908234   0.499619211
   0.000545885   0.499619211   0.999908234
   0.000888985   0.500043037   0.500043037
   0.499827406   0.999935860   0.999935860
   0.499536328   0.999570536   0.500095906
   0.499536328   0.500095906   0.999570536
   0.499014779   0.500376560   0.500376560
   0.000545885   0.250091766   0.750380789
   0.000545885   0.750380789   0.250091766
   0.000888985   0.749956963   0.749956963
   0.499827406   0.250064140   0.250064140
   0.499536328   0.250429464   0.749904094
   0.499536328   0.749904094   0.250429464
   0.499014779   0.749623440   0.749623440
   0.249111015   0.000043037   0.249956963
   0.249454115   0.999619211   0.750091766
   0.249454115   0.499908234   0.250380789
   0.750985221   0.000376560   0.249623440
   0.750463672   0.000095906   0.750429464
   0.750463672   0.499570536   0.249904094
   0.750172594   0.499935860   0.750064140
   0.249111015   0.249956963   0.000043037
   0.249454115   0.250380789   0.499908234
   0.249454115   0.750091766   0.999619211
   0.750985221   0.249623440   0.000376560
   0.750463672   0.249904094   0.499570536
   0.750463672   0.750429464   0.000095906
   0.750172594   0.750064140   0.499935860
   0.251049273   0.250082651   0.250082651
   0.249784147   0.248947338   0.749676978
   0.249784147   0.749676978   0.248947338
   0.250110415   0.750621567   0.750621567
   0.749146015   0.249762274   0.249762274
   0.750230105   0.250243731   0.750015581
   0.750230105   0.750015581   0.250243731
   0.749994208   0.749707650   0.749707650
   0.251049273   0.999917349   0.999917349
   0.249784147   0.001052662   0.500323022
   0.249784147   0.500323022   0.001052662
   0.250110415   0.499378433   0.499378433
   0.749146015   0.000237726   0.000237726
   0.750230105   0.999756269   0.499984419
   0.750230105   0.499984419   0.999756269
   0.749994208   0.500292350   0.500292350
   0.999889585   0.250621567   0.999378433
   0.000215853   0.249676978   0.501052662
   0.000215853   0.748947338   0.000323022
   0.998950727   0.750082651   0.499917349
   0.500005792   0.249707650   0.000292350
   0.499769895   0.250015581   0.499756269
   0.499769895   0.750243731   0.999984419
   0.500853985   0.749762274   0.500237726
   0.999889585   0.999378433   0.250621567
   0.000215853   0.000323022   0.748947338
   0.000215853   0.501052662   0.249676978
   0.998950727   0.499917349   0.750082651
   0.500005792   0.000292350   0.249707650
   0.499769895   0.999984419   0.750243731
   0.499769895   0.499756269   0.250015581
   0.500853985   0.500237726   0.749762274
Mg28Ni4O32
   1.00000000
   8.442832821   0.000000000   0.000000000
   0.000000000   8.442686138  -0.000000000
   0.000000000  -0.000000000   8.442686138
  Ni  Mg  O
  4  28  32
Direct configuration=     3
   0.999435934   0.000510825   0.000510825
   0.999435934   0.249489175   0.249489175
   0.250564066   0.500510825   0.749489175
   0.250564066   0.749489175   0.500510825
   0.000610266   0.999890016   0.499616153
   0.000610266   0.499616153   0.999890016
   0.000953053   0.500061539   0.500061539
   0.499776557   0.999936663   0.999936663
   0.499486007   0.999555565   0.500105730
   0.499486007   0.500105730   0.999555565
   0.498946577   0.500386137   0.500386137
   0.000610266   0.250109984   0.750383847
   0.000610266   0.750383847   0.250109984
   0.000953053   0.749938461   0.749938461
   0.499776557   0.250063337   0.250063337
   0.499486007   0.250444435   0.749894270
   0.499486007   0.749894270   0.250444435
   0.498946577   0.749613863   0.749613863
   0.249046947   0.000061539   0.249938461
   0.249389734   0.999616153   0.750109984
   0.249389734   0.499890016   0.250383847
   0.751053423   0.000386137   0.249613863
   0.750513993   0.000105730   0.750444435
   0.750513993   0.499555565   0.249894270
   0.750223443   0.499936663   0.750063337
   0.249046947   0.249938461   0.000061539
   0.249389734   0.250383847   0.499890016
   0.249389734   0.750109984   0.999616153
   0.751053423   0.249613863   0.000386137
   0.750513993   0.249894270   0.499555565
   0.750513993   0.750444435   0.000105730
   0.750223443   0.750063337   0.499936663
   0.251076363   0.250073706   0.250073706
   0.249758021   0.248883518   0.749668923
   0.249758021   0.749668923   0.248883518
   0.250107027   0.750663361   0.750663361
   0.749118638   0.249725516   0.249725516
   0.750258833   0.250243036   0.750034504
   0.750258833   0.750034504   0.250243036
   0.750009799   0.749715805   0.749715805
   0.251076363   0.999926294   0.999926294
   0.249758021   0.001116482   0.500331077
   0.249758021   0.500331077   0.001116482
   0.250107027   0.499336639   0.499336639
   0.749118638   0.000274484   0.000274484
   0.750258833   0.999756964   0.499965496
   0.750258833   0.499965496   0.999756964
   0.750009799   0.500284195   0.500284195
   0.999892973   0.250663361   0.999336639
   0.000241979   0.249668923   0.501116482
   0.000241979   0.748883518   0.000331077
   0.998923637   0.750073706   0.499926294
   0.499990201   0.249715805   0.000284195
   0.499741167   0.250034504   0.499756964
   0.499741167   0.750243036   0.999965496
   0.500881362   0.749725516   0.500274484
   0.999892973   0.999336639   0.250663361
   0.000241979   0.000331077   0.748883518
   0.000241979   0.501116482   0.249668923
   0.998923637   0.499926294   0.750073706
   0.499990201   0.000284195   0.249715805
   0.499741167   0.999965496   0.750243036
   0.499741167   0.499756964   0.250034504
   0.500881362   0.500274484   0.749725516
Mg28Ni4O32
   1.00000000
   8.451770687   0.000000000   0.000000000
   0.000000000   8.451166239  -0.000000000
   0.000000000  -0.000000000   8.451166239
  Ni  Mg  O
  4  28  32
Direct configuration=     4
   0.998767063   0.000776937   0.000776937
   0.998767063   0.249223063   0.249223063
   0.251232937   0.500776937   0.749223063
   0.251232937   0.749223063   0.500776937
   0.001426099   0.999621100   0.499760080
   0.001426099   0.499760080   0.999621100
   0.001595539   0.500348024   0.500348024
   0.499014017   0.999980763   0.999980763
   0.498871960   0.999520033   0.500227801
   0.498871960   0.500227801   0.999520033
   0.498308472   0.500344855   0.500344855
   0.001426099   0.250378900   0.750239920
   0.001426099   0.750239920   0.250378900
   0.001595539   0.749651976   0.749651976
   0.499014017   0.250019237   0.250019237
   0.498871960   0.250479967   0.749772199
   0.498871960   0.749772199   0.250479967
   0.498308472   0.749655145   0.749655145
   0.248404461   0.000348024   0.249651976
   0.248573901   0.999760080   0.750378900
   0.248573901   0.499621100   0.250239920
   0.751691528   0.000344855   0.249655145
   0.751128040   0.000227801   0.750479967
   0.751128040   0.499520033   0.249772199
   0.750985983   0.499980763   0.750019237
   0.248404461   0.249651976   0.000348024
   0.248573901   0.250239920   0.499621100
   0.248573901   0.750378900   0.999760080
   0.751691528   0.249655145   0.000344855
   0.751128040   0.249772199   0.499520033
   0.751128040   0.750479967   0.000227801
   0.750985983   0.750019237   0.499980763
   0.250968246   0.249873506   0.249873506
   0.249425791   0.248353425   0.749702789
   0.249425791   0.749702789   0.248353425
   0.249982106   0.751051244   0.751051244
   0.749094483   0.249232390   0.249232390
   0.750636803   0.250110833   0.750335626
   0.750636803   0.750335626   0.250110833
   0.750303610   0.750003003   0.750003003
   0.250968246   0.000126494   0.000126494
   0.249425791   0.001646575   0.500297211
   0.249425791   0.500297211   0.001646575
   0.249982106   0.498948756   0.498948756
   0.749094483   0.000767610   0.000767610
   0.750636803   0.999889167   0.499664374
   0.750636803   0.499664374   0.999889167
   0.750303610   0.499996997   0.499996997
   0.000017894   0.251051244   0.998948756
   0.000574209   0.249702789   0.501646575
   0.000574209   0.748353425   0.000297211
   0.999031754   0.749873506   0.500126494
   0.499696390   0.250003003   0.999996997
   0.499363197   0.250335626   0.499889167
   0.499363197   0.750110833   0.999664374
   0.500905517   0.749232390   0.500767610
   0.000017894   0.998948756   0.251051244
   0.000574209   0.000297211   0.748353425
   0.000574209   0.501646575   0.249702789
   0.999031754   0.500126494   0.749873506
   0.499696390   0.999996997   0.250003003
   0.499363197   0.999664374   0.750110833
   0.499363197   0.499889167   0.250335626
   0.500905517   0.500767610   0.749232390
Mg28Ni4O32
   1.00000000
   8.459365841   0.000000000   0.000000000
   0.000000000   8.458371238  -0.000000000
   0.000000000  -0.000000000   8.458371238
  Ni  Mg  O
  4  28  32
Direct configuration=     5
   0.998352622   0.000848428   0.000848428
   0.998352622   0.249151572   0.249151572
   0.251647378   0.500848428   0.749151572
   0.251647378   0.749151572   0.500848428
   0.001916539   0.999420521   0.499989136
   0.001916539   0.499989136   0.999420521
   0.001861020   0.500552447   0.500552447
   0.498477259   0.000031573   0.000031573
   0.498523452   0.999618351   0.500304327
   0.498523452   0.500304327   0.999618351
   0.498122190   0.500177874   0.500177874
   0.001916539   0.250579479   0.750010864
   0.001916539   0.750010864   0.250579479
   0.001861020   0.749447553   0.749447553
   0.498477259   0.249968427   0.249968427
   0.498523452   0.250381649   0.749695673
   0.498523452   0.749695673   0.250381649
   0.498122190   0.749822126   0.749822126
   0.248138980   0.000552447   0.249447553
   0.248083461   0.999989136   0.750579479
   0.248083461   0.499420521   0.250010864
   0.751877810   0.000177874   0.249822126
   0.751476548   0.000304327   0.750381649
   0.751476548   0.499618351   0.249695673
   0.751522741   0.500031573   0.749968427
   0.248138980   0.249447553   0.000552447
   0.248083461   0.250010864   0.499420521
   0.248083461   0.750579479   0.999989136
   0.751877810   0.249822126   0.000177874
   0.751476548   0.249695673   0.499618351
   0.751476548   0.750381649   0.000304327
   0.751522741   0.749968427   0.500031573
   0.250508631   0.249679173   0.249679173
   0.249229185   0.248273850   0.749833740
   0.249229185   0.749833740   0.248273850
   0.249834411   0.751169321   0.751169321
   0.749335761   0.248926907   0.248926907
   0.750885423   0.249942339   0.750547498
   0.750885423   0.750547498   0.249942339
   0.750588582   0.750316555   0.750316555
   0.250508631   0.000320827   0.000320827
   0.249229185   0.001726150   0.500166260
   0.249229185   0.500166260   0.001726150
   0.249834411   0.498830679   0.498830679
   0.749335761   0.001073093   0.001073093
   0.750885423   0.000057661   0.499452502
   0.750885423   0.499452502   0.000057661
   0.750588582   0.499683445   0.499683445
   0.000165589   0.251169321   0.998830679
   0.000770815   0.249833740   0.501726150
   0.000770815   0.748273850   0.000166260
   0.999491369   0.749679173   0.500320827
   0.499411418   0.250316555   0.999683445
   0.499114577   0.250547498   0.500057661
   0.499114577   0.749942339   0.999452502
   0.500664239   0.748926907   0.501073093
   0.000165589   0.998830679   0.251169321
   0.000770815   0.000166260   0.748273850
   0.000770815   0.501726150   0.249833740
   0.999491369   0.500320827   0.749679173
   0.499411418   0.999683445   0.250316555
   0.499114577   0.999452502   0.749942339
   0.499114577   0.500057661   0.250547498
   0.500664239   0.501073093   0.748926907
Mg28Ni4O32
   1.00000000
   8.468085797   0.000000000   0.000000000
   0.000000000   8.466639550  -0.000000000
   0.000000000  -0.000000000   8.466639550
  Ni  Mg  O
  4  28  32
Direct configuration=     6
   0.998036748   0.000808605   0.000808605
   0.998036748   0.249191395   0.249191395
   0.251963252   0.500808605   0.749191395
   0.251963252   0.749191395   0.500808605
   0.002236228   0.999233930   0.500279393
   0.002236228   0.500279393   0.999233930
   0.001935918   0.500702186   0.500702186
   0.498066887   0.000086693   0.000086693
   0.498318424   0.999800461   0.500365664
   0.498318424   0.500365664   0.999800461
   0.498232187   0.499902798   0.499902798
   0.002236228   0.250766070   0.749720607
   0.002236228   0.749720607   0.250766070
   0.001935918   0.749297814   0.749297814
   0.498066887   0.249913307   0.249913307
   0.498318424   0.250199539   0.749634336
   0.498318424   0.749634336   0.250199539
   0.498232187   0.750097202   0.750097202
   0.248064082   0.000702186   0.249297814
   0.247763772   0.000279393   0.750766070
   0.247763772   0.499233930   0.249720607
   0.751767813   0.999902798   0.250097202
   0.751681576   0.000365664   0.750199539
   0.751681576   0.499800461   0.249634336
   0.751933113   0.500086693   0.749913307
   0.248064082   0.249297814   0.000702186
   0.247763772   0.249720607   0.499233930
   0.247763772   0.750766070   0.000279393
   0.751767813   0.250097202   0.999902798
   0.751681576   0.249634336   0.499800461
   0.751681576   0.750199539   0.000365664
   0.751933113   0.749913307   0.500086693
   0.249745258   0.249471028   0.249471028
   0.249111366   0.248496487   0.750032220
   0.249111366   0.750032220   0.248496487
   0.249659425   0.751125847   0.751125847
   0.749750217   0.248738113   0.248738113
   0.751085405   0.249759193   0.750685809
   0.751085405   0.750685809   0.249759193
   0.750934861   0.750654319   0.750654319
   0.249745258   0.000528972   0.000528972
   0.249111366   0.001503513   0.499967780
   0.249111366   0.499967780   0.001503513
   0.249659425   0.498874153   0.498874153
   0.749750217   0.001261887   0.001261887
   0.751085405   0.000240807   0.499314191
   0.751085405   0.499314191   0.000240807
   0.750934861   0.499345681   0.499345681
   0.000340575   0.251125847   0.998874153
   0.000888634   0.250032220   0.501503513
   0.000888634   0.748496487   0.999967780
   0.000254742   0.749471028   0.500528972
   0.499065139   0.250654319   0.999345681
   0.498914595   0.250685809   0.500240807
   0.498914595   0.749759193   0.999314191
   0.500249783   0.748738113   0.501261887
   0.000340575   0.998874153   0.251125847
   0.000888634   0.999967780   0.748496487
   0.000888634   0.501503513   0.250032220
   0.000254742   0.500528972   0.749471028
   0.499065139   0.999345681   0.250654319
   0.498914595   0.999314191   0.749759193
   0.498914595   0.500240807   0.250685809
   0.500249783   0.501261887   0.748738113
Mg28Ni4O32
   1.00000000
   8.474474877   0.000000000   0.000000000
   0.000000000   8.472692059  -0.000000000
   0.000000000  -0.000000000   8.472692059
  Ni  Mg  O
  4  28  32
Direct configuration=     7
   0.997945047   0.000719747   0.000719747
   0.997945047   0.249280253   0.249280253
   0.252054953   0.500719747   0.749280253
   0.252054953   0.749280253   0.500719747
   0.002236311   0.999150558   0.500427862
   0.002236311   0.500427862   0.999150558
   0.001864623   0.500697059   0.500697059
   0.498023121   0.000109449   0.000109449
   0.498344175   0.999923115   0.500388903
   0.498344175   0.500388903   0.999923115
   0.498528582   0.499694110   0.499694110
   0.002236311   0.250849442   0.749572138
   0.002236311   0.749572138   0.250849442
   0.001864623   0.749302941   0.749302941
   0.498023121   0.249890551   0.249890551
   0.498344175   0.250076885   0.749611097
   0.498344175   0.749611097   0.250076885
   0.498528582   0.750305890   0.750305890
   0.248135377   0.000697059   0.249302941
   0.247763689   0.000427862   0.750849442
   0.247763689   0.499150558   0.249572138
   0.751471418   0.999694110   0.250305890
   0.751655825   0.000388903   0.750076885
   0.751655825   0.499923115   0.249611097
   0.751976879   0.500109449   0.749890551
   0.248135377   0.249302941   0.000697059
   0.247763689   0.249572138   0.499150558
   0.247763689   0.750849442   0.000427862
   0.751471418   0.250305890   0.999694110
   0.751655825   0.249611097   0.499923115
   0.751655825   0.750076885   0.000388903
   0.751976879   0.749890551   0.500109449
   0.249157685   0.249376983   0.249376983
   0.249131469   0.248837455   0.750150433
   0.249131469   0.750150433   0.248837455
   0.249576904   0.750991387   0.750991387
   0.750018842   0.248774768   0.248774768
   0.751144337   0.249706365   0.750642507
   0.751144337   0.750642507   0.249706365
   0.751170684   0.750783053   0.750783053
   0.249157685   0.000623017   0.000623017
   0.249131469   0.001162545   0.499849567
   0.249131469   0.499849567   0.001162545
   0.249576904   0.499008613   0.499008613
   0.750018842   0.001225232   0.001225232
   0.751144337   0.000293635   0.499357493
   0.751144337   0.499357493   0.000293635
   0.751170684   0.499216947   0.499216947
   0.000423096   0.250991387   0.999008613
   0.000868531   0.250150433   0.501162545
   0.000868531   0.748837455   0.999849567
   0.000842315   0.749376983   0.500623017
   0.498829316   0.250783053   0.999216947
   0.498855663   0.250642507   0.500293635
   0.498855663   0.749706365   0.999357493
   0.499981158   0.748774768   0.501225232
   0.000423096   0.999008613   0.250991387
   0.000868531   0.999849567   0.748837455
   0.000868531   0.501162545   0.250150433
   0.000842315   0.500623017   0.749376983
   0.498829316   0.999216947   0.250783053
   0.498855663   0.999357493   0.749706365
   0.498855663   0.500293635   0.250642507
   0.499981158   0.501225232   0.748774768
Mg28Ni4O32
   1.00000000
   8.482726532   0.000000000   0.000000000
   0.000000000   8.480500548  -0.000000000
   0.000000000  -0.000000000   8.480500548
  Ni  Mg  O
  4  28  32
Direct configuration=     8
   0.997956692   0.000610449   0.000610449
   0.997956692   0.249389551   0.249389551
   0.252043308   0.500610449   0.749389551
   0.252043308   0.749389551   0.500610449
   0.002008726   0.999111362   0.500462809
   0.002008726   0.500462809   0.999111362
   0.001746662   0.500548070   0.500548070
   0.498270843   0.000111118   0.000111118
   0.498534657   0.999987375   0.500399148
   0.498534657   0.500399148   0.999987375
   0.499013945   0.499502563   0.499502563
   0.002008726   0.250888638   0.749537191
   0.002008726   0.749537191   0.250888638
   0.001746662   0.749451930   0.749451930
   0.498270843   0.249888882   0.249888882
   0.498534657   0.250012625   0.749600852
   0.498534657   0.749600852   0.250012625
   0.499013945   0.750497437   0.750497437
   0.248253338   0.000548070   0.249451930
   0.247991274   0.000462809   0.750888638
   0.247991274   0.499111362   0.249537191
   0.750986055   0.999502563   0.250497437
   0.751465343   0.000399148   0.750012625
   0.751465343   0.499987375   0.249600852
   0.751729157   0.500111118   0.749888882
   0.248253338   0.249451930   0.000548070
   0.247991274   0.249537191   0.499111362
   0.247991274   0.750888638   0.000462809
   0.750986055   0.250497437   0.999502563
   0.751465343   0.249600852   0.499987375
   0.751465343   0.750012625   0.000399148
   0.751729157   0.749888882   0.500111118
   0.248602939   0.249364021   0.249364021
   0.249261534   0.249307413   0.750189915
   0.249261534   0.750189915   0.249307413
   0.249584290   0.750795588   0.750795588
   0.750142368   0.249005826   0.249005826
   0.751119772   0.249793545   0.750408273
   0.751119772   0.750408273   0.249793545
   0.751396797   0.750729444   0.750729444
   0.248602939   0.000635979   0.000635979
   0.249261534   0.000692587   0.499810085
   0.249261534   0.499810085   0.000692587
   0.249584290   0.499204412   0.499204412
   0.750142368   0.000994174   0.000994174
   0.751119772   0.000206455   0.499591727
   0.751119772   0.499591727   0.000206455
   0.751396797   0.499270556   0.499270556
   0.000415710   0.250795588   0.999204412
   0.000738466   0.250189915   0.500692587
   0.000738466   0.749307413   0.999810085
   0.001397061   0.749364021   0.500635979
   0.498603203   0.250729444   0.999270556
   0.498880228   0.250408273   0.500206455
   0.498880228   0.749793545   0.999591727
   0.499857632   0.749005826   0.500994174
   0.000415710   0.999204412   0.250795588
   0.000738466   0.999810085   0.749307413
   0.000738466   0.500692587   0.250189915
   0.001397061   0.500635979   0.749364021
   0.498603203   0.999270556   0.250729444
   0.498880228   0.999591727   0.749793545
   0.498880228   0.500206455   0.250408273
   0.499857632   0.500994174   0.749005826
Mg28Ni4O32
   1.00000000
   8.491638872   0.000000000   0.000000000
   0.000000000   8.488923561  -0.000000000
   0.000000000  -0.000000000   8.488923561
  Ni  Mg  O
  4  28  32
Direct configuration=     9
   0.998066029   0.000558730   0.000558730
   0.998066029   0.249441270   0.249441270
   0.251933971   0.500558730   0.749441270
   0.251933971   0.749441270   0.500558730
   0.001606494   0.999138711   0.500308391
   0.001606494   0.500308391   0.999138711
   0.001683811   0.500269425   0.500269425
   0.498781765   0.000091320   0.000091320
   0.498831037   0.999913559   0.500394077
   0.498831037   0.500394077   0.999913559
   0.499496874   0.499438906   0.499438906
   0.001606494   0.250861289   0.749691609
   0.001606494   0.749691609   0.250861289
   0.001683811   0.749730575   0.749730575
   0.498781765   0.249908680   0.249908680
   0.498831037   0.250086441   0.749605923
   0.498831037   0.749605923   0.250086441
   0.499496874   0.750561094   0.750561094
   0.248316189   0.000269425   0.249730575
   0.248393506   0.000308391   0.750861289
   0.248393506   0.499138711   0.249691609
   0.750503126   0.999438906   0.250561094
   0.751168963   0.000394077   0.750086441
   0.751168963   0.499913559   0.249605923
   0.751218235   0.500091320   0.749908680
   0.248316189   0.249730575   0.000269425
   0.248393506   0.249691609   0.499138711
   0.248393506   0.750861289   0.000308391
   0.750503126   0.250561094   0.999438906
   0.751168963   0.249605923   0.499913559
   0.751168963   0.750086441   0.000394077
   0.751218235   0.749908680   0.500091320
   0.248390380   0.249478015   0.249478015
   0.249471155   0.249683675   0.750063414
   0.249471155   0.750063414   0.249683675
   0.249756970   0.750647015   0.750647015
   0.749934086   0.249380951   0.249380951
   0.750996793   0.250062850   0.750014551
   0.750996793   0.750014551   0.250062850
   0.751497874   0.750425682   0.750425682
   0.248390380   0.000521985   0.000521985
   0.249471155   0.000316325   0.499936586
   0.249471155   0.499936586   0.000316325
   0.249756970   0.499352985   0.499352985
   0.749934086   0.000619049   0.000619049
   0.750996793   0.999937150   0.499985449
   0.750996793   0.499985449   0.999937150
   0.751497874   0.499574318   0.499574318
   0.000243030   0.250647015   0.999352985
   0.000528845   0.250063414   0.500316325
   0.000528845   0.749683675   0.999936586
   0.001609620   0.749478015   0.500521985
   0.498502126   0.250425682   0.999574318
   0.499003207   0.250014551   0.499937150
   0.499003207   0.750062850   0.999985449
   0.500065914   0.749380951   0.500619049
   0.000243030   0.999352985   0.250647015
   0.000528845   0.999936586   0.749683675
   0.000528845   0.500316325   0.250063414
   0.001609620   0.500521985   0.749478015
   0.498502126   0.999574318   0.250425682
   0.499003207   0.999985449   0.750062850
   0.499003207   0.499937150   0.250014551
   0.500065914   0.500619049   0.749380951
Mg28Ni4O32
   1.00000000
   8.497937776   0.000000000   0.000000000
   0.000000000   8.494863511  -0.000000000
   0.000000000  -0.000000000   8.494863511
  Ni  Mg  O
  4  28  32
Direct configuration=     10
   0.998221735   0.000606317   0.000606317
   0.998221735   0.249393683   0.249393683
   0.251778265   0.500606317   0.749393683
   0.251778265   0.749393683   0.500606317
   0.001234885   0.999223715   0.500040774
   0.001234885   0.500040774   0.999223715
   0.001718529   0.500007339   0.500007339
   0.499271366   0.000073867   0.000073867
   0.499071673   0.999728804   0.500374669
   0.499071673   0.500374669   0.999728804
   0.499717012   0.499552216   0.499552216
   0.001234885   0.250776285   0.749959226
   0.001234885   0.749959226   0.250776285
   0.001718529   0.749992661   0.749992661
   0.499271366   0.249926133   0.249926133
   0.499071673   0.250271196   0.749625331
   0.499071673   0.749625331   0.250271196
   0.499717012   0.750447784   0.750447784
   0.248281471   0.000007339   0.249992661
   0.248765115   0.000040774   0.750776285
   0.248765115   0.499223715   0.249959226
   0.750282988   0.999552216   0.250447784
   0.750928327   0.000374669   0.750271196
   0.750928327   0.499728804   0.249625331
   0.750728634   0.500073867   0.749926133
   0.248281471   0.249992661   0.000007339
   0.248765115   0.249959226   0.499223715
   0.248765115   0.750776285   0.000040774
   0.750282988   0.250447784   0.999552216
   0.750928327   0.249625331   0.499728804
   0.750928327   0.750271196   0.000374669
   0.750728634   0.749926133   0.500073867
   0.248671537   0.249672851   0.249672851
   0.249650927   0.249744390   0.749804106
   0.249650927   0.749804106   0.249744390
   0.250060118   0.750639502   0.750639502
   0.749456182   0.249691935   0.249691935
   0.750819552   0.250390043   0.749673521
   0.750819552   0.749673521   0.250390043
   0.751380890   0.750016716   0.750016716
   0.248671537   0.000327149   0.000327149
   0.249650927   0.000255610   0.500195894
   0.249650927   0.500195894   0.000255610
   0.250060118   0.499360498   0.499360498
   0.749456182   0.000308065   0.000308065
   0.750819552   0.999609957   0.500326479
   0.750819552   0.500326479   0.999609957
   0.751380890   0.499983284   0.499983284
   0.999939882   0.250639502   0.999360498
   0.000349073   0.249804106   0.500255610
   0.000349073   0.749744390   0.000195894
   0.001328463   0.749672851   0.500327149
   0.498619110   0.250016716   0.999983284
   0.499180448   0.249673521   0.499609957
   0.499180448   0.750390043   0.000326479
   0.500543818   0.749691935   0.500308065
   0.999939882   0.999360498   0.250639502
   0.000349073   0.000195894   0.749744390
   0.000349073   0.500255610   0.249804106
   0.001328463   0.500327149   0.749672851
   0.498619110   0.999983284   0.250016716
   0.499180448   0.000326479   0.750390043
   0.499180448   0.499609957   0.249673521
   0.500543818   0.500308065   0.749691935
Mg28Ni4O32
   1.00000000
   8.499701583   0.000000000   0.000000000
   0.000000000   8.496511821  -0.000000000
   0.000000000  -0.000000000   8.496511821
  Ni  Mg  O
  4  28  32
Direct configuration=     11
   0.998341326   0.000680106   0.000680106
   0.998341326   0.249319894   0.249319894
   0.251658674   0.500680106   0.749319894
   0.251658674   0.749319894   0.500680106