H107LiMg53
   1.00000000
   13.503017209   0.000000181   0.000000099
   0.000000181   13.503017055  -0.000000163
   0.000000066  -0.000000109   9.029981395
  Li  Mg  H
  1  53  107
Direct configuration=     1
   0.999997818   0.000001047   0.000000620
   0.999995134   0.999997094   0.332906169
   0.999995271   0.000003238   0.667099759
   0.999840310   0.333462950   0.999572506
   0.999836710   0.333481636   0.333756260
   0.999991865   0.333329117   0.666673468
   0.999999348   0.666696434   0.000000271
   0.000001132   0.666679021   0.333325828
   0.000001144   0.666677937   0.666673933
   0.333304455   0.000001179   0.000009292
   0.333319415   0.000000498   0.333316170
   0.333320070   0.000000190   0.666673927
   0.333332790   0.333335464   0.999990187
   0.333333363   0.333335501   0.333338267
   0.333324819   0.333333834   0.666671337
   0.333324224   0.666670791   0.999999291
   0.333329562   0.666665500   0.333335975
   0.333331926   0.666668320   0.666664721
   0.666698189   0.000001846   0.999999265
   0.666680825   0.000003674   0.333326913
   0.666678102   0.000001293   0.666673871
   0.666673145   0.333326714   0.000000325
   0.666667668   0.333332216   0.333334968
   0.666668455   0.333332281   0.666664684
   0.666669710   0.666671831   0.000000463
   0.666669906   0.666672030   0.333328356
   0.666670945   0.666670939   0.666671180
   0.166710905   0.166359195   0.166494283
   0.166665500   0.166648297   0.500038587
   0.166544328   0.166531668   0.833475107
   0.166676793   0.500027722   0.166663097
   0.166669196   0.499995475   0.500008673
   0.166666870   0.499994995   0.833327933
   0.166524573   0.833474625   0.166621505
   0.166655298   0.833343694   0.500001314
   0.166525751   0.833473017   0.833377846
   0.499999802   0.166662967   0.166663994
   0.500001293   0.166663963   0.500001864
   0.500001340   0.166661783   0.833334133
   0.500001047   0.500001012   0.166667710
   0.499999302   0.500000117   0.499999504
   0.499999323   0.500000136   0.833332787
   0.499999976   0.833337900   0.166664017
   0.499999738   0.833336091   0.499999829
   0.499999579   0.833338248   0.833336154
   0.833449553   0.166514193   0.166621414
   0.833349873   0.166650580   0.500007407
   0.833478287   0.166521274   0.833371377
   0.833311693   0.500026054   0.166663792
   0.833345339   0.499990569   0.499996486
   0.833347717   0.499990281   0.833339790
   0.833464419   0.833464031   0.166479295
   0.833343248   0.833343938   0.499999553
   0.833465395   0.833466185   0.833521155
   0.101572703   0.101678752   0.000093876
   0.101443713   0.101522368   0.333328220
   0.101467257   0.101464448   0.666594163
   0.101427179   0.434708289   0.000077789
   0.101425570   0.434707762   0.333254988
   0.101446160   0.434779432   0.666667675
   0.101457405   0.768072964   0.999999400
   0.101438071   0.768083335   0.333356770
   0.101438109   0.768083746   0.666643770
   0.434776010   0.101440846   0.999997795
   0.434774518   0.101438978   0.333334608
   0.434772820   0.101438233   0.666667601
   0.434773410   0.434772715   0.000000510
   0.434773149   0.434772463   0.333332374
   0.434772535   0.434771784   0.666667116
   0.434771659   0.768104636   0.000000048
   0.434771940   0.768105320   0.333332519
   0.434772178   0.768105546   0.666667433
   0.768078928   0.101461741   0.000007343
   0.768089280   0.101442670   0.333348612
   0.768081287   0.101437587   0.666643732
   0.768109481   0.434768988   0.000005808
   0.768110067   0.434769351   0.333326735
   0.768099017   0.434774250   0.666667469
   0.768039197   0.768039502   0.000000187
   0.768109055   0.768109359   0.333325589
   0.768109293   0.768109447   0.666674214
   0.231902464   0.231981950   0.000066561
   0.231834716   0.231915010   0.333258664
   0.231892627   0.231889681   0.666674741
   0.231890600   0.565222556   0.000006267
   0.231889885   0.565222256   0.333326271
   0.231894640   0.565229805   0.666667469
   0.231926159   0.898539669   0.999997665
   0.231916031   0.898559198   0.333358576
   0.231916828   0.898560905   0.666643560
   0.565228060   0.231894916   0.999999557
   0.565227779   0.231894221   0.333332993
   0.565227461   0.231894110   0.666667444
   0.565227082   0.565227440   0.000000297
   0.565227397   0.565227756   0.333332596
   0.565227449   0.565227622   0.666667107
   0.565227294   0.898559986   0.000000047
   0.565228567   0.898561830   0.333332294
   0.565228359   0.898561583   0.666667658
   0.898608444   0.231940010   0.000079979
   0.898625983   0.231928689   0.333276823
   0.898554187   0.231908938   0.666643570
   0.898562596   0.565222541   0.000005770
   0.898564405   0.565223850   0.333326531
   0.898559506   0.565234907   0.666667694
   0.898391895   0.898391449   0.999999474
   0.898534068   0.898533517   0.333405616
   0.898534509   0.898533777   0.666594072
   0.065230778   0.268094833   0.499989174
   0.065222362   0.268131422   0.833321673
   0.065225572   0.601436891   0.166668141
   0.065227709   0.601440748   0.499998851
   0.065227624   0.601441274   0.833333013
   0.065357070   0.934642928   0.166964773
   0.065215748   0.934784859   0.499999954
   0.065358608   0.934639970   0.833033892
   0.398557375   0.268105046   0.166666065
   0.398561994   0.268104304   0.500000048
   0.398559468   0.268102597   0.833333876
   0.398561267   0.601440197   0.166666581
   0.398561691   0.601439419   0.500000354
   0.398561180   0.601439924   0.833333064
   0.398561798   0.934769926   0.166668138
   0.398560287   0.934771786   0.499999420
   0.398559934   0.934771769   0.833332420
   0.731902093   0.268104062   0.166665854
   0.731893086   0.268106323   0.499999030
   0.731897459   0.268102080   0.833335149
   0.731896046   0.601441405   0.166665999
   0.731895182   0.601437827   0.500000788
   0.731896970   0.601440485   0.833333215
   0.731861752   0.934781742   0.166692398
   0.731900746   0.934772541   0.500000519
   0.731862307   0.934781894   0.833307108
   0.268131493   0.065218786   0.166691682
   0.268098646   0.065226911   0.499999885
   0.268136291   0.065218383   0.833307626
   0.268078332   0.398545243   0.166666020
   0.268108416   0.398559412   0.500002264
   0.268106649   0.398556827   0.833331718
   0.268101312   0.731899852   0.166665893
   0.268105457   0.731895227   0.500000208
   0.268101202   0.731899469   0.833333906
   0.601438640   0.065228481   0.166668162
   0.601438627   0.065228585   0.500000188
   0.601439147   0.065228507   0.833331660
   0.601438369   0.398560551   0.166666585
   0.601438700   0.398561086   0.499999404
   0.601439217   0.398560577   0.833334008
   0.601441528   0.731895921   0.166665999
   0.601438496   0.731894502   0.499999915
   0.601441166   0.731896277   0.833334086
   0.934660594   0.065384655   0.166958901
   0.934787778   0.065211403   0.500001501
   0.934643020   0.065354617   0.833031604
   0.934972884   0.398358418   0.166667567
   0.934762605   0.398569634   0.499993753
   0.934762629   0.398569022   0.833338742
   0.934782600   0.731863596   0.166692361
   0.934773160   0.731901544   0.499999510
   0.934782519   0.731862993   0.833308100
H107LiMg53
   1.00000000
   13.503224022   0.000000633   0.000001296
   0.000000633   13.503222350  -0.000001994
   0.000000866  -0.000001334   9.029764674
  Li  Mg  H
  1  53  107
Direct configuration=     2
   0.999973813   0.000018034   0.000011086
   0.999944974   0.999975538   0.328387252
   0.999941859   0.000035515   0.671676415
   0.998039849   0.334954443   0.994857013
   0.997995559   0.335166184   0.338431729
   0.999918323   0.333274649   0.666729663
   0.999990124   0.667007974   0.000002694
   0.000015736   0.666808949   0.333264132
   0.000015361   0.666798514   0.666733502
   0.333013129   0.000010179   0.000097719
   0.333180568   0.999998959   0.333160811
   0.333185017   0.999998621   0.666733134
   0.333330279   0.333370289   0.999891673
   0.333316545   0.333350073   0.333388555
   0.333227430   0.333333605   0.666717051
   0.333216380   0.666724744   0.999992144
   0.333285579   0.666656030   0.333357295
   0.333314569   0.666690940   0.666650401
   0.667026819   0.000018493   0.999991829
   0.666828052   0.000044516   0.333276000
   0.666794399   0.000015194   0.666732774
   0.666750323   0.333244314   0.000003648
   0.666679318   0.333315580   0.333346213
   0.666686242   0.333317005   0.666649965
   0.666685115   0.666715153   0.000002008
   0.666710363   0.666740461   0.333282974
   0.666725329   0.666724949   0.666715035
   0.167266806   0.162946947   0.164702658
   0.166670149   0.166464269   0.500439258
   0.165210863   0.165062185   0.834968952
   0.166787053   0.500333541   0.166619985
   0.166689499   0.499937314   0.500075767
   0.166661192   0.499933258   0.833300903
   0.165029298   0.834958102   0.166172124
   0.166510443   0.833475979   0.500017283
   0.165044662   0.834938801   0.833818612
   0.499999355   0.166619577   0.166630757
   0.500015549   0.166630232   0.500023452
   0.500018283   0.166604103   0.833345708
   0.500011708   0.500013744   0.166674880
   0.499991884   0.500001920   0.499995178
   0.499992113   0.500002136   0.833329973
   0.500000436   0.833390730   0.166630998
   0.499998014   0.833370670   0.499998198
   0.499994154   0.833396401   0.833370791
   0.834661483   0.164903305   0.166170099
   0.833558897   0.166457232   0.500060621
   0.835011514   0.164994815   0.833772373
   0.833133164   0.500256568   0.166628224
   0.833464503   0.499905181   0.499951700
   0.833493248   0.499899556   0.833420924
   0.834890980   0.834888533   0.164509404
   0.833432944   0.833441515   0.499995775
   0.834904076   0.834913968   0.835494628
   0.103021279   0.104339300   0.001137655
   0.101529888   0.102506780   0.333244705
   0.101829352   0.101793610   0.665815104
   0.101373949   0.434044745   0.000938157
   0.101357203   0.434041551   0.332392020
   0.101585563   0.434914336   0.666674522
   0.101729397   0.767779754   0.999993026
   0.101503859   0.767891251   0.333627592
   0.101504263   0.767895861   0.666378917
   0.434867416   0.101521426   0.999975118
   0.434853547   0.101502197   0.333351328
   0.434834972   0.101493448   0.666673536
   0.434843207   0.434835208   0.000006476
   0.434840022   0.434832116   0.333324625
   0.434831744   0.434822571   0.666668896
   0.434825170   0.768154574   0.000000303
   0.434827870   0.768163164   0.333328217
   0.434831543   0.768167043   0.666671492
   0.767857197   0.101786175   0.000085820
   0.767969057   0.101564051   0.333530923
   0.767865106   0.101496631   0.666378290
   0.768227140   0.434787891   0.000083120
   0.768234725   0.434791617   0.333245054
   0.768093275   0.434856646   0.666672012
   0.767366059   0.767369313   0.000002572
   0.768230477   0.768233709   0.333187642
   0.768233087   0.768235680   0.666809673
   0.231922077   0.232907421   0.000814780
   0.231076531   0.232075313   0.332364921
   0.231793496   0.231755858   0.666815175
   0.231782381   0.565099588   0.000072055
   0.231773360   0.565096725   0.333255810
   0.231837040   0.565194602   0.666672100
   0.232209685   0.898238189   0.999973339
   0.232101397   0.898465115   0.333647550
   0.232110916   0.898483974   0.666376657
   0.565171621   0.231839143   0.999994460
   0.565168961   0.231830414   0.333333821
   0.565165303   0.231829263   0.666671638
   0.565163795   0.565167737   0.000003955
   0.565167745   0.565171694   0.333327286
   0.565167451   0.565170309   0.666668744
   0.565171359   0.898488110   0.000000266
   0.565182322   0.898507083   0.333325546
   0.565178680   0.898503317   0.666674186
   0.899069735   0.232360001   0.000961617
   0.899276249   0.232237057   0.332665026
   0.898403355   0.232019571   0.666376634
   0.898524690   0.565099983   0.000082733
   0.898543236   0.565111211   0.333242538
   0.898478207   0.565252766   0.666674697
   0.896530658   0.896526050   0.999994600
   0.898184593   0.898178811   0.334182212
   0.898190577   0.898181618   0.665812612
   0.065200797   0.268042578   0.499913413
   0.065105141   0.268478371   0.833151333
   0.065140685   0.601479783   0.166677927
   0.065169837   0.601520621   0.499982675
   0.065171733   0.601525244   0.833339488
   0.066657514   0.933344656   0.170241439
   0.064994486   0.935016584   0.499997471
   0.066674124   0.933312030   0.829745080
   0.398455598   0.268161026   0.166658975
   0.398506847   0.268151832   0.499999693
   0.398479950   0.268131001   0.833341139
   0.398500843   0.601515894   0.166661199
   0.398502899   0.601510034   0.500003553
   0.398499940   0.601512877   0.833335251
   0.398498934   0.934808635   0.166678071
   0.398484792   0.934828113   0.499991061
   0.398482153   0.934825075   0.833330499
   0.731966611   0.268109381   0.166655130
   0.731823894   0.268171904   0.499984727
   0.731918620   0.268078758   0.833360364
   0.731845117   0.601534734   0.166658268
   0.731844797   0.601484600   0.500007649
   0.731866771   0.601513112   0.833334088
   0.731444839   0.934940336   0.166970390
   0.731906728   0.934836873   0.500005421
   0.731450908   0.934942145   0.833024468
   0.268533315   0.065006890   0.166962703
   0.268083746   0.065159101   0.499992042
   0.268527881   0.065064214   0.833037747
   0.267833718   0.398305146   0.166658529
   0.268201007   0.398479227   0.500027706
   0.268179415   0.398451459   0.833313925
   0.268071486   0.731940999   0.166655679
   0.268164474   0.731842945   0.500001958
   0.268071043   0.731936233   0.833342476
   0.601500072   0.065179998   0.166678233
   0.601501827   0.065177434   0.500001724
   0.601506432   0.065179405   0.833320179
   0.601494416   0.398493030   0.166661222
   0.601500870   0.398496472   0.499991627
   0.601503975   0.398493482   0.833347112
   0.601529672   0.731850138   0.166658283
   0.601495365   0.731833898   0.499999108
   0.601524084   0.731855665   0.833342624
   0.933559657   0.066992126   0.170171931
   0.935048395   0.064942467   0.500017524
   0.933345132   0.066625116   0.829716001
   0.937258432   0.396043726   0.166671504
   0.934676170   0.398638620   0.500035217
   0.934674739   0.398631999   0.833295822
   0.934949801   0.731466449   0.166969959
   0.934843455   0.731916851   0.499992898
   0.934948753   0.731459647   0.833036807
H107LiMg53
   1.00000000
   13.503246719  -0.000001604   0.000001492
  -0.000001604   13.503244988  -0.000002053
   0.000000998  -0.000001373   9.029750239
  Li  Mg  H
  1  53  107
Direct configuration=     3
   0.999971944   0.000023205   0.000015361
   0.999945893   0.999984637   0.328463336
   0.999940140   0.000032761   0.671594465
   0.997975084   0.335030598   0.994772826
   0.997929482   0.335234231   0.338520434
   0.999932895   0.333261696   0.666716990
   0.999988105   0.667002688   0.000002281
   0.000017879   0.666808877   0.333278668
   0.000017182   0.666800471   0.666719341
   0.333029116   0.000005312   0.000085395
   0.333189024   0.999991183   0.333186565
   0.333189227   0.999995203   0.666718744
   0.333329421   0.333378060   0.999898726
   0.333295831   0.333338080   0.333381596
   0.333218186   0.333324351   0.666716497
   0.333202766   0.666737889   0.999992572
   0.333278344   0.666662736   0.333346857
   0.333308472   0.666699264   0.666660403
   0.667020199   0.000015901   0.999992344
   0.666826359   0.000046021   0.333289697
   0.666791047   0.000015333   0.666718610
   0.666761765   0.333229799   0.000003462
   0.666684156   0.333307571   0.333336489
   0.666689126   0.333309407   0.666659978
   0.666671496   0.666706324   0.999999216
   0.666719479   0.666754427   0.333286420
   0.666737043   0.666736446   0.666714375
   0.167349094   0.162870816   0.164789878
   0.166689351   0.166481743   0.500424116
   0.165203071   0.165055518   0.834920508
   0.166790508   0.500338854   0.166618954
   0.166686156   0.499928026   0.500051296
   0.166657022   0.499925495   0.833326581
   0.165076367   0.834908192   0.166207267
   0.166492330   0.833492534   0.500018827
   0.165093010   0.834888673   0.833782191
   0.500000958   0.166619565   0.166629963
   0.500015798   0.166629096   0.500024778
   0.500020616   0.166602596   0.833345192
   0.500011215   0.500015426   0.166674761
   0.499991897   0.500002444   0.499996006
   0.499992132   0.500002637   0.833329276
   0.500000833   0.833391210   0.166630149
   0.499999083   0.833372090   0.499998359
   0.499993349   0.833398064   0.833371486
   0.834611098   0.164946597   0.166204504
   0.833585247   0.166441280   0.500035607
   0.834971280   0.165046244   0.833763486
   0.833172685   0.500217976   0.166627197
   0.833450254   0.499922076   0.499946406
   0.833479589   0.499914316   0.833427341
   0.834894700   0.834894275   0.164578039
   0.833413013   0.833422131   0.499996569
   0.834909179   0.834919742   0.835424766
   0.102966046   0.104357272   0.001157922
   0.101501879   0.102527285   0.333216752
   0.101822190   0.101783800   0.665819169
   0.101383095   0.434015101   0.000957580
   0.101368428   0.434014450   0.332372550
   0.101583576   0.434915576   0.666674003
   0.101737675   0.767777764   0.999993092
   0.101514575   0.767878071   0.333643254
   0.101514877   0.767882375   0.666363400
   0.434862498   0.101518043   0.999975951
   0.434851835   0.101501213   0.333351034
   0.434834458   0.101492329   0.666672917
   0.434843971   0.434836242   0.000006968
   0.434840076   0.434832400   0.333323664
   0.434831097   0.434821567   0.666669366
   0.434827998   0.768154462   0.000000064
   0.434830258   0.768163612   0.333328840
   0.434834720   0.768168669   0.666671108
   0.767861314   0.101799198   0.000085142
   0.767962746   0.101579980   0.333545742
   0.767850437   0.101506258   0.666362729
   0.768241069   0.434784430   0.000096049
   0.768249386   0.434787768   0.333232424
   0.768097036   0.434860365   0.666671727
   0.767351484   0.767354432   0.000002819
   0.768250607   0.768253536   0.333136509
   0.768252953   0.768256307   0.666860555
   0.231913947   0.232945469   0.000846061
   0.231027073   0.232075332   0.332279928
   0.231777023   0.231736339   0.666866205
   0.231776524   0.565090595   0.000070368
   0.231766866   0.565088216   0.333257558
   0.231836982   0.565193754   0.666671903
   0.232211232   0.898231744   0.999973935
   0.232114508   0.898455391   0.333662107
   0.232124404   0.898473224   0.666361330
   0.565168907   0.231838268   0.999994143
   0.565166732   0.231828984   0.333334484
   0.565163177   0.231828028   0.666671298
   0.565163947   0.565167650   0.000004273
   0.565168767   0.565172464   0.333326532
   0.565167630   0.565171277   0.666669180
   0.565176235   0.898491369   0.000000006
   0.565183686   0.898507925   0.333326479
   0.565178877   0.898503395   0.666673519
   0.899084342   0.232348433   0.000979307
   0.899290477   0.232237336   0.332662837
   0.898390846   0.232034377   0.666361216
   0.898534192   0.565090943   0.000095709
   0.898550313   0.565098458   0.333230155
   0.898477783   0.565250901   0.666674077
   0.896554332   0.896550165   0.999995387
   0.898190259   0.898185133   0.334177836
   0.898196757   0.898187468   0.665815646
   0.065194215   0.268047151   0.499951737
   0.065102156   0.268486812   0.833105510
   0.065136272   0.601480337   0.166675728
   0.065169061   0.601516669   0.499979129
   0.065173649   0.601520047   0.833345266
   0.066620438   0.933384553   0.170320652
   0.064965763   0.935049061   0.499995172
   0.066635258   0.933352518   0.829666601
   0.398457814   0.268162558   0.166662209
   0.398505135   0.268152631   0.499998660
   0.398481618   0.268131454   0.833338975
   0.398501002   0.601515089   0.166660064
   0.398501314   0.601511472   0.500002912
   0.398500327   0.601512316   0.833337022
   0.398493690   0.934814405   0.166676108
   0.398482492   0.934832268   0.499989221
   0.398481065   0.934826622   0.833334135
   0.732000892   0.268078294   0.166656708
   0.731829271   0.268169298   0.499981114
   0.731958451   0.268041825   0.833362228
   0.731838848   0.601535292   0.166661644
   0.731846030   0.601480587   0.500006037
   0.731868494   0.601505608   0.833332324
   0.731440711   0.934940018   0.166974292
   0.731904679   0.934840908   0.500004665
   0.731446359   0.934941705   0.833021213
   0.268601820   0.064943599   0.166968181
   0.268083472   0.065157411   0.499985429
   0.268527854   0.065067560   0.833041543
   0.267823562   0.398300564   0.166662061
   0.268202573   0.398480216   0.500028641
   0.268180601   0.398455741   0.833309783
   0.268035681   0.731975374   0.166657345
   0.268164257   0.731842529   0.500001422
   0.268036068   0.731970554   0.833341376
   0.601500476   0.065180442   0.166676074
   0.601503709   0.065174312   0.500001165
   0.601507128   0.065178930   0.833322886
   0.601493602   0.398493943   0.166660089
   0.601501760   0.398495530   0.499990247
   0.601502959   0.398494461   0.833349619
   0.601525541   0.731848502   0.166661681
   0.601493703   0.731832781   0.499999288
   0.601518989   0.731854989   0.833339051
   0.933606778   0.066965326   0.170249805
   0.935078657   0.064912649   0.500017472
   0.933383584   0.066584468   0.829637825
   0.937331898   0.395970738   0.166668987
   0.934627472   0.398689132   0.500169357
   0.934624962   0.398682329   0.833166707
   0.934948759   0.731462276   0.166973905
   0.934846864   0.731915339   0.499991561
   0.934947675   0.731455570   0.833034215
H107LiMg53
   1.00000000
   13.503714751  -0.000044350   0.000005430
  -0.000044350   13.503711758  -0.000003449
   0.000003631  -0.000002307   9.029440432
  Li  Mg  H
  1  53  107
Direct configuration=     4
   0.999931736   0.000126899   0.000098072
   0.999953115   0.000152912   0.329195537
   0.999901059   0.999986871   0.670760342
   0.996491440   0.336665273   0.992454110
   0.996416867   0.336761274   0.340908290
   0.000194856   0.333013417   0.666499629
   0.999950698   0.666958161   0.999993518
   0.000058453   0.666822917   0.333528956
   0.000051463   0.666846849   0.666477137
   0.333289266   0.999898769   0.999852768
   0.333343554   0.999830689   0.333648002
   0.333248310   0.999933303   0.666473412
   0.333314768   0.333534166   0.000011997
   0.332906370   0.333120579   0.333255264
   0.333030741   0.333150429   0.666720509
   0.332925688   0.666994761   0.999998509
   0.333132956   0.666787002   0.333163234
   0.333188420   0.666858550   0.666837992
   0.666956371   0.999974596   0.000000145
   0.666816261   0.000081957   0.333525125
   0.666745158   0.000021382   0.666476284
   0.666993654   0.332942464   0.999999204
   0.666780074   0.333154726   0.333165120
   0.666753344   0.333164776   0.666837396
   0.666419803   0.666548465   0.999954090
   0.666895003   0.667024979   0.333329793
   0.666962838   0.666958930   0.666716089
   0.168965933   0.160909539   0.166038435
   0.167035409   0.166777068   0.500210347
   0.164840022   0.164705239   0.834320558
   0.166870196   0.500480617   0.166593364
   0.166624622   0.499742637   0.499619356
   0.166576004   0.499765674   0.833786574
   0.165663755   0.834266795   0.166783269
   0.166130668   0.833824260   0.500048176
   0.165704918   0.834242468   0.833182728
   0.500028341   0.166611074   0.166610143
   0.500021514   0.166602068   0.500051292
   0.500063193   0.166564606   0.833338741
   0.500003832   0.500048555   0.166679368
   0.499990221   0.500013103   0.500009655
   0.499990451   0.500012671   0.833311142
   0.500005380   0.833414883   0.166609427
   0.500018824   0.833404566   0.500000330
   0.499980056   0.833439092   0.833390305
   0.833920037   0.165447298   0.166766351
   0.834113760   0.166113661   0.499591364
   0.834521714   0.165709772   0.833654476
   0.833889421   0.499529955   0.166602942
   0.833184287   0.500243256   0.499850499
   0.833229153   0.500197188   0.833549349
   0.835190544   0.835227097   0.165477298
   0.833061563   0.833083352   0.500009246
   0.835232047   0.835257857   0.834504953
   0.102175667   0.105125999   0.001714555
   0.100995753   0.103066002   0.332721798
   0.101751434   0.101656244   0.665741004
   0.101550428   0.433360464   0.001440016
   0.101569052   0.433402716   0.331890304
   0.101572814   0.434963168   0.666663868
   0.101932725   0.767699405   0.999992644
   0.101727476   0.767600712   0.333987258
   0.101725750   0.767600312   0.666023867
   0.434790375   0.101472162   0.999984770
   0.434833330   0.101494383   0.333352921
   0.434834206   0.101479172   0.666660954
   0.434869433   0.434866619   0.000017863
   0.434842779   0.434839278   0.333304293
   0.434824327   0.434806109   0.666677977
   0.434884655   0.768158317   0.999995886
   0.434880816   0.768179756   0.333336607
   0.434899831   0.768208015   0.666667560
   0.767904852   0.102086803   0.000088317
   0.767821733   0.101894425   0.333856190
   0.767546505   0.101701340   0.666022283
   0.768524569   0.434707483   0.000355556
   0.768548117   0.434705778   0.332974791
   0.768150248   0.434940061   0.666670410
   0.767000160   0.766997872   0.000005889
   0.768634743   0.768632501   0.332173162
   0.768632146   0.768649927   0.667820626
   0.231736610   0.233768466   0.001550693
   0.229997440   0.232114724   0.330573388
   0.231463586   0.231358169   0.667830119
   0.231655781   0.564911279   0.000052123
   0.231632056   0.564915608   0.333273185
   0.231824072   0.565170628   0.666672083
   0.232277543   0.898065936   0.999978060
   0.232387720   0.898255486   0.333990913
   0.232408015   0.898258343   0.666025095
   0.565114230   0.231814647   0.999986839
   0.565118905   0.231793063   0.333344637
   0.565116681   0.231795898   0.666668571
   0.565152456   0.565152291   0.000009079
   0.565184073   0.565183652   0.333313817
   0.565167624   0.565186312   0.666677162
   0.565254668   0.898537987   0.999995412
   0.565202208   0.898515190   0.333344072
   0.565174327   0.898496486   0.666660683
   0.899433253   0.232195228   0.001431181
   0.899656586   0.232292084   0.332552446
   0.898128310   0.232324380   0.666023361
   0.898713332   0.564892241   0.000355967
   0.898690055   0.564836270   0.332981194
   0.898457137   0.565234011   0.666662441
   0.896694293   0.896698793   0.000009728
   0.898240012   0.898247689   0.334248941
   0.898254691   0.898237211   0.665717037
   0.065055343   0.268137827   0.500644478
   0.065010800   0.268714491   0.832231392
   0.065042623   0.601493320   0.166638934
   0.065147481   0.601448085   0.499906851
   0.065200123   0.601434608   0.833454878
   0.066198758   0.933864686   0.172301265
   0.064419551   0.935669793   0.499948224
   0.066183077   0.933834580   0.827700499
   0.398483831   0.268199222   0.166724044
   0.398454851   0.268171315   0.499974020
   0.398500468   0.268145400   0.833302209
   0.398477912   0.601526705   0.166633522
   0.398461046   0.601550889   0.499990564
   0.398483213   0.601528140   0.833375749
   0.398404207   0.934910138   0.166643810
   0.398436309   0.934913525   0.499957600
   0.398451543   0.934861143   0.833394216
   0.732623539   0.267528317   0.166686060
   0.731927132   0.268124397   0.499907920
   0.732675465   0.267380591   0.833403114
   0.731732217   0.601537783   0.166725820
   0.731856431   0.601428167   0.499974937
   0.731886361   0.601382406   0.833299257
   0.731300763   0.934960699   0.167093341
   0.731871681   0.934919930   0.499990297
   0.731299476   0.934958659   0.832914389
   0.269940190   0.063728620   0.167111153
   0.268070818   0.065122719   0.499854965
   0.268584370   0.065106250   0.833073952
   0.267598581   0.398181723   0.166729420
   0.268243333   0.398477991   0.500047372
   0.268215843   0.398521036   0.833229440
   0.267392200   0.732591043   0.166688451
   0.268161472   0.731834251   0.499990792
   0.267409126   0.732586096   0.833321442
   0.601518513   0.065182926   0.166640085
   0.601542324   0.065111347   0.499989940
   0.601529952   0.065163217   0.833369860
   0.601501274   0.398486516   0.166633611
   0.601530743   0.398466042   0.499961978
   0.601510030   0.398487212   0.833404272
   0.601455942   0.731812977   0.166726249
   0.601480016   0.731804417   0.500003475
   0.601435681   0.731833080   0.833270308
   0.934250238   0.066774823   0.172192054
   0.935661146   0.064337348   0.500017686
   0.933832299   0.066088517   0.827671502
   0.939022313   0.394284595   0.166624255
   0.933713886   0.399637156   0.502705782
   0.933690809   0.399623030   0.830717787
   0.934954844   0.731325231   0.167093656
   0.934915246   0.731892770   0.499964292
   0.934953901   0.731317715   0.832942031
H107LiMg53
   1.00000000
   13.503767468  -0.000049529   0.000005864
  -0.000049529   13.503764417  -0.000003563
   0.000003921  -0.000002383   9.029408098
  Li  Mg  H
  1  53  107
Direct configuration=     5
   0.999926523   0.000140649   0.000106516
   0.999951698   0.000168770   0.329275489
   0.999899491   0.999983530   0.670670378
   0.996378458   0.336776272   0.992253543
   0.996303861   0.336878082   0.341104409
   0.000217467   0.332995497   0.666492832
   0.999949618   0.666960360   0.999991525
   0.000059980   0.666818670   0.333537286
   0.000052458   0.666840949   0.666470636
   0.333319131   0.999870496   0.999815079
   0.333376956   0.999800292   0.333692317
   0.333254443   0.999930817   0.666468074
   0.333314417   0.333552187   0.000018353
   0.332873445   0.333106713   0.333240226
   0.333015646   0.333134761   0.666728237
   0.332896254   0.667019331   0.999998052
   0.333117183   0.666798007   0.333156771
   0.333174456   0.666871961   0.666844920
   0.666960172   0.999976185   0.000000126
   0.666813861   0.000086608   0.333531531
   0.666739929   0.000023507   0.666469872
   0.667019698   0.332914971   0.999997636
   0.666792292   0.333141236   0.333160020
   0.666766970   0.333152181   0.666843893
   0.666399939   0.666536274   0.999958308
   0.666908563   0.667046310   0.333317942
   0.666979813   0.666976976   0.666723759
   0.169091625   0.160742964   0.166039098
   0.167049415   0.166800445   0.500198522