H107LiMg53
   1.00000000
   13.503017162   0.000003093   0.000000000
   0.000003093   13.503017134  -0.000000000
   0.000000000  -0.000000000   9.029981252
  Li  Mg  H
  1  53  107
Direct configuration=     1
   0.999998689   0.000001114   0.000000000
   0.000000594   0.000000120   0.332895800
   0.000000594   0.000000120   0.667104200
   0.000000172   0.333303760   1.000000000
   0.999998789   0.333321644   0.333325852
   0.999998789   0.333321645   0.666674148
   0.999999873   0.666697006   0.000000000
   0.000000142   0.666678436   0.333327949
   0.000000142   0.666678435   0.666672052
   0.333291963   0.000023314   1.000000000
   0.333316871   0.999993146   0.333333780
   0.333316871   0.999993146   0.666666220
   0.333330297   0.333329586   0.000000000
   0.333328922   0.333327845   0.333330710
   0.333328922   0.333327845   0.666669290
   0.333143650   0.666490627   1.000000000
   0.333324353   0.666660573   0.333370435
   0.333324353   0.666660573   0.666629566
   0.666721496   0.000025212   1.000000000
   0.666669018   0.999991896   0.333322455
   0.666669018   0.999991896   0.666677545
   0.666674326   0.333325656   1.000000000
   0.666668107   0.333332708   0.333334758
   0.666668107   0.333332708   0.666665242
   0.666693692   0.666658194   1.000000000
   0.666665334   0.666666210   0.333336078
   0.666665334   0.666666210   0.666663922
   0.166536667   0.166531793   0.166479787
   0.166656621   0.166656937   0.500000000
   0.166536667   0.166531793   0.833520213
   0.166663084   0.500001388   0.166654291
   0.166665616   0.500001623   0.500000000
   0.166663084   0.500001388   0.833345709
   0.166522969   0.833479731   0.166629980
   0.166659264   0.833349608   0.500000000
   0.166522968   0.833479731   0.833370020
   0.500000409   0.166662292   0.166663733
   0.500000303   0.166663588   0.500000000
   0.500000409   0.166662292   0.833336266
   0.500006023   0.499997371   0.166675772
   0.500004895   0.500004100   0.500000000
   0.500006023   0.499997371   0.833324229
   0.500160125   0.833498195   0.167089237
   0.500006861   0.833342885   0.500000000
   0.500160125   0.833498195   0.832910763
   0.833475448   0.166526809   0.166620304
   0.833344708   0.166655354   0.500000000
   0.833475448   0.166526809   0.833379696
   0.833335491   0.500002198   0.166664790
   0.833336266   0.499999910   0.500000000
   0.833335491   0.500002198   0.833335210
   0.833466272   0.833465989   0.166478855
   0.833342961   0.833343581   0.500000000
   0.833466272   0.833465988   0.833521145
   0.101607906   0.101609249   0.000000000
   0.101465068   0.101466123   0.333405834
   0.101465068   0.101466123   0.666594166
   0.101439114   0.434771705   0.000000000
   0.101438925   0.434772101   0.333331816
   0.101438925   0.434772101   0.666668184
   0.101459228   0.768075202   1.000000000
   0.101437215   0.768082755   0.333356191
   0.101437215   0.768082755   0.666643808
   0.434775909   0.101437520   0.000000000
   0.434772649   0.101440049   0.333331318
   0.434772649   0.101440049   0.666668682
   0.434773846   0.434774174   0.000000000
   0.434771103   0.434771669   0.333333076
   0.434771103   0.434771669   0.666666924
   0.434768362   0.768101641   0.333321650
   0.434768362   0.768101641   0.666678350
   0.768073902   0.101457419   1.000000000
   0.768083110   0.101437192   0.333356895
   0.768083110   0.101437192   0.666643105
   0.768105823   0.434771437   0.000000000
   0.768106218   0.434771798   0.333332910
   0.768106218   0.434771798   0.666667090
   0.768036318   0.768042209   1.000000000
   0.768110512   0.768109956   0.333324778
   0.768110512   0.768109956   0.666675222
   0.231960482   0.231961615   0.000000000
   0.231890928   0.231891612   0.333326037
   0.231890928   0.231891612   0.666673963
   0.231897861   0.565230707   0.000000000
   0.231894221   0.565227531   0.333333049
   0.231894221   0.565227532   0.666666951
   0.231952532   0.898528588   1.000000000
   0.231913175   0.898560174   0.333358345
   0.231913175   0.898560174   0.666641655
   0.565227846   0.231896007   0.000000000
   0.565227602   0.231894487   0.333331967
   0.565227602   0.231894487   0.666668033
   0.565213061   0.565253486   1.000000000
   0.565225715   0.565224758   0.333335274
   0.565225715   0.565224758   0.666664726
   0.565025331   0.898357825   1.000000000
   0.565236843   0.898570045   0.333325415
   0.565236843   0.898570045   0.666674585
   0.898542417   0.231926005   0.000000000
   0.898562089   0.231916173   0.333356022
   0.898562088   0.231916173   0.666643978
   0.898560606   0.565226888   0.000000000
   0.898562083   0.565228236   0.333332505
   0.898562083   0.565228236   0.666667495
   0.898392958   0.898391629   1.000000000
   0.898534582   0.898534341   0.333404905
   0.898534582   0.898534341   0.666595095
   0.065217865   0.268136523   0.166692160
   0.065227040   0.268098470   0.500000000
   0.065217865   0.268136523   0.833307840
   0.065225733   0.601440256   0.166670311
   0.065227576   0.601438931   0.500000000
   0.065225733   0.601440256   0.833329688
   0.065357492   0.934641510   0.166966152
   0.065214567   0.934784737   0.500000000
   0.065357492   0.934641510   0.833033848
   0.398558853   0.268103482   0.166666463
   0.398561369   0.268105604   0.500000000
   0.398558853   0.268103482   0.833333537
   0.398582791   0.601496665   0.166595248
   0.398559978   0.601436914   0.500000000
   0.398582791   0.601496665   0.833404752
   0.398572671   0.934707687   0.166589990
   0.398553040   0.934779205   0.500000000
   0.398572671   0.934707687   0.833410010
   0.731898749   0.268101622   0.166665578
   0.731894363   0.268105812   0.500000000
   0.731898749   0.268101622   0.833334422
   0.731891105   0.601445375   0.166659593
   0.731896696   0.601438109   0.500000000
   0.731891105   0.601445375   0.833340407
   0.731858743   0.934779625   0.166686438
   0.731908022   0.934775057   0.500000000
   0.731858743   0.934779625   0.833313562
   0.268141065   0.065212020   0.166685614
   0.268098291   0.065228993   0.500000000
   0.268141065   0.065212020   0.833314386
   0.268103975   0.398556158   0.166668182
   0.268105002   0.398560597   0.500000000
   0.268103975   0.398556158   0.833331818
   0.268158188   0.731920662   0.166594999
   0.268103497   0.731893370   0.500000000
   0.268158188   0.731920662   0.833405001
   0.601436946   0.065224169   0.166662466
   0.601441293   0.065235176   0.500000000
   0.601436946   0.065224169   0.833337534
   0.601439660   0.398559661   0.166666091
   0.601438499   0.398560770   0.500000000
   0.601439660   0.398559661   0.833333908
   0.601377155   0.731908914   0.166587954
   0.601446168   0.731886977   0.500000000
   0.601377155   0.731908914   0.833412046
   0.934641814   0.065358536   0.166966539
   0.934785488   0.065214696   0.500000000
   0.934641814   0.065358536   0.833033461
   0.934771132   0.398560517   0.166668092
   0.934771307   0.398560801   0.500000000
   0.934771132   0.398560517   0.833331909
   0.934782398   0.731863067   0.166692645
   0.934773303   0.731901190   0.500000000
   0.934782398   0.731863067   0.833307354
H107LiMg53
   1.00000000
   13.503221885   0.000039087   0.000000000
   0.000039087   13.503221557   0.000000000
   0.000000000   0.000000000   9.029764489
  Li  Mg  H
  1  53  107
Direct configuration=     2
   0.999983637   0.000014349   0.999999992
   0.000006965   0.000001794   0.328307568
   0.000006968   0.000001792   0.671692438
   0.000003744   0.332997351   0.999999977
   0.999984584   0.333202178   0.333264785
   0.999984581   0.333202178   0.666735256
   0.999994508   0.667011886   0.999999990
   0.000001415   0.666799006   0.333290571
   0.000001409   0.666799004   0.666709429
   0.332855680   0.000280736   0.999999974
   0.333148519   0.999910136   0.333330867
   0.333148518   0.999910126   0.666669162
   0.333314250   0.333303486   0.999999989
   0.333274021   0.333259818   0.333309069
   0.333274026   0.333259820   0.666690929
   0.331015096   0.664526556   0.999999988
   0.333223997   0.666597468   0.333745401
   0.333224000   0.666597474   0.666254625
   0.667246524   0.000241386   0.999999991
   0.666703283   0.999921138   0.333218046
   0.666703283   0.999921136   0.666781963
   0.666767753   0.333234385   0.999999987
   0.666687360   0.333322589   0.333344321
   0.666687362   0.333322584   0.666655688
   0.666973345   0.666547083   0.999999985
   0.666650673   0.666671367   0.333344472
   0.666650670   0.666671366   0.666655530
   0.165131008   0.165073615   0.164530943
   0.166564431   0.166570522   0.499999980
   0.165131008   0.165073621   0.835469069
   0.166612803   0.500010576   0.166529613
   0.166647503   0.500015830   0.499999985
   0.166612802   0.500010578   0.833470420
   0.165035218   0.835004625   0.166267878
   0.166555908   0.833547812   0.499999985
   0.165035223   0.835004629   0.833732129
   0.500004620   0.166612653   0.166628232
   0.500001885   0.166630563   0.499999985
   0.500004619   0.166612655   0.833371767
   0.500068465   0.499979650   0.166762458
   0.500059229   0.500045736   0.499999993
   0.500068465   0.499979654   0.833237531
   0.501957563   0.835352516   0.171717056
   0.500066907   0.833435371   0.499999994
   0.501957562   0.835352518   0.828282942
   0.834959637   0.165071783   0.166164850
   0.833488190   0.166512227   0.499999980
   0.834959637   0.165071783   0.833835166
   0.833363423   0.500024657   0.166639711
   0.833373676   0.499998883   0.500000002
   0.833363421   0.500024656   0.833360281
   0.834906138   0.834899106   0.164520511
   0.833434249   0.833436172   0.499999981
   0.834906137   0.834899111   0.835479497
   0.103453290   0.103468143   0.999999995
   0.101802391   0.101814571   0.334178978
   0.101802388   0.101814568   0.665821021
   0.101507982   0.434824217   0.999999989
   0.101503006   0.434827421   0.333317868
   0.101503001   0.434827419   0.666682126
   0.101751498   0.767809334   0.999999995
   0.101496518   0.767886020   0.333617399
   0.101496515   0.767886020   0.666382604
   0.434870822   0.101483222   0.999999995
   0.434830084   0.101509598   0.333310175
   0.434830084   0.101509596   0.666689846
   0.434847440   0.434853108   0.999999996
   0.434814084   0.434824297   0.333332143
   0.434814082   0.434824295   0.666667867
   0.434788659   0.768123472   0.333240601
   0.434788661   0.768123471   0.666759416
   0.767801077   0.101734319   0.999999988
   0.767887266   0.101489925   0.333625142
   0.767887264   0.101489924   0.666374863
   0.768169348   0.434823281   1.000000000
   0.768174741   0.434826761   0.333331969
   0.768174744   0.434826764   0.666668038
   0.767338200   0.767410857   0.999999995
   0.768241356   0.768237658   0.333175679
   0.768241356   0.768237657   0.666824326
   0.232625590   0.232637758   0.999999991
   0.231770008   0.231777423   0.333193817
   0.231770012   0.231777425   0.666806201
   0.231811266   0.565140218   0.999999991
   0.231832674   0.565167746   0.333328119
   0.231832679   0.565167751   0.666671885
   0.232528014   0.898098547   0.999999995
   0.232065724   0.898475561   0.333644436
   0.232065722   0.898475563   0.666355589
   0.565169035   0.231852160   0.999999998
   0.565166909   0.231834180   0.333320219
   0.565166910   0.231834182   0.666679791
   0.564989687   0.565484884   0.999999996
   0.565147838   0.565136853   0.333359863
   0.565147840   0.565136855   0.666640153
   0.562746301   0.896061092   0.999999990
   0.565319739   0.898644426   0.333351380
   0.565319736   0.898644423   0.666648624
   0.898269941   0.232204330   0.999999994
   0.898498775   0.232101427   0.333616665
   0.898498776   0.232101429   0.666383348
   0.898495029   0.565166700   0.999999997
   0.898509227   0.565177533   0.333327308
   0.898509226   0.565177534   0.666672699
   0.896557775   0.896542435   0.999999996
   0.898194295   0.898191321   0.334167439
   0.898194295   0.898191321   0.665832579
   0.065057123   0.268530521   0.166965511
   0.065158842   0.268083832   0.499999984
   0.065057118   0.268530525   0.833034497
   0.065148856   0.601517536   0.166702116
   0.065166275   0.601503445   0.499999995
   0.065148855   0.601517536   0.833297894
   0.066649193   0.933339221   0.170230416
   0.064981475   0.935010107   0.499999994
   0.066649193   0.933339223   0.829769579
   0.398476517   0.268141087   0.166664048
   0.398503416   0.268166551   0.499999990
   0.398476514   0.268141087   0.833335963
   0.398778006   0.602204561   0.165794281
   0.398484284   0.601476427   0.499999986
   0.398778004   0.602204561   0.834205714
   0.398620370   0.934047568   0.165742472
   0.398404050   0.934914347   0.499999989
   0.398620366   0.934047572   0.834257537
   0.731928393   0.268075686   0.166651528
   0.731834204   0.268168656   0.499999997
   0.731928392   0.268075687   0.833348477
   0.731788060   0.601579089   0.166584191
   0.731861841   0.601489092   0.499999994
   0.731788058   0.601579090   0.833415820
   0.731398815   0.934907762   0.166883500
   0.731988979   0.934866310   0.499999992
   0.731398814   0.934907765   0.833116505
   0.268590676   0.064981220   0.166889415
   0.268080004   0.065184240   0.499999983
   0.268590682   0.064981214   0.833110603
   0.268146777   0.398446238   0.166682718
   0.268159561   0.398494154   0.499999991
   0.268146777   0.398446236   0.833317298
   0.268766525   0.732209277   0.165792656
   0.268137438   0.731822943   0.499999989
   0.268766527   0.732209273   0.834207354
   0.601473122   0.065115080   0.166597095
   0.601532712   0.065251941   0.499999992
   0.601473119   0.065115082   0.833402906
   0.601509819   0.398482482   0.166654838
   0.601498147   0.398492998   0.499999988
   0.601509820   0.398482479   0.833345178
   0.600748948   0.731990970   0.165724049
   0.601586289   0.731748005   0.499999995
   0.600748946   0.731990971   0.834275956
   0.933341250   0.066662637   0.170234945
   0.935019649   0.064983321   0.499999997
   0.933341248   0.066662635   0.829765069
   0.934814693   0.398491413   0.166677487
   0.934820772   0.398492395   0.499999990
   0.934814696   0.398491410   0.833322515
   0.934945955   0.731463655   0.166971256
   0.934844104   0.731912540   0.499999997
   0.934945952   0.731463656   0.833028757
H107LiMg53
   1.00000000
   13.503243842   0.000041727   0.000000000
   0.000041727   13.503243519   0.000000000
   0.000000000   0.000000000   9.029750582
  Li  Mg  H
  1  53  107
Direct configuration=     3
   0.999982565   0.000015661   0.999999993
   0.000007051   0.000002246   0.328400469
   0.000007053   0.000002243   0.671599536
   0.000005435   0.333004095   0.999999980
   0.999983310   0.333204580   0.333279187
   0.999983308   0.333204581   0.666720846
   0.999990992   0.667005766   0.999999992
   0.000001360   0.666796902   0.333306073
   0.000001354   0.666796900   0.666693925
   0.332859863   0.000286064   0.999999978
   0.333153065   0.999900683   0.333320348
   0.333153063   0.999900674   0.666679678
   0.333326960   0.333313821   0.999999992
   0.333263065   0.333247388   0.333311192
   0.333263070   0.333247391   0.666688807
   0.330932176   0.664469575   0.999999989
   0.333217140   0.666604363   0.333719393
   0.333217143   0.666604368   0.666280629
   0.667200538   0.000200530   0.999999993
   0.666716356   0.999937853   0.333227277
   0.666716355   0.999937850   0.666772732
   0.666782624   0.333221660   0.999999990
   0.666694851   0.333315573   0.333335150
   0.666694852   0.333315569   0.666664857
   0.666965224   0.666531612   0.999999987
   0.666653792   0.666684624   0.333321157
   0.666653788   0.666684624   0.666678842
   0.165129281   0.165071316   0.164603954
   0.166582746   0.166590833   0.499999982
   0.165129282   0.165071322   0.835396056
   0.166603756   0.500004098   0.166541658
   0.166644280   0.500012873   0.499999987
   0.166603755   0.500004101   0.833458373
   0.165098051   0.834950861   0.166296812
   0.166536359   0.833566974   0.499999988
   0.165098055   0.834950865   0.833703194
   0.500004659   0.166613111   0.166627641
   0.500000329   0.166633300   0.499999988
   0.500004659   0.166613114   0.833372358
   0.500066761   0.499989989   0.166755728
   0.500060860   0.500043629   0.499999996
   0.500066761   0.499989993   0.833244262
   0.502022128   0.835419704   0.171791401
   0.500052863   0.833421528   0.499999995
   0.502022128   0.835419707   0.828208598
   0.834909905   0.165126270   0.166203410
   0.833505456   0.166494727   0.499999983
   0.834909904   0.165126269   0.833796605
   0.833364596   0.500023795   0.166638371
   0.833376057   0.499998951   0.500000003
   0.833364593   0.500023794   0.833361620
   0.834910276   0.834900138   0.164594092
   0.833419054   0.833416360   0.499999983
   0.834910276   0.834900143   0.835405912
   0.103426015   0.103439975   0.999999996
   0.101795948   0.101807975   0.334172916
   0.101795946   0.101807972   0.665827083
   0.101510283   0.434825499   0.999999990
   0.101503445   0.434827967   0.333317033
   0.101503440   0.434827965   0.666682959
   0.101761657   0.767808861   0.999999995
   0.101509928   0.767873492   0.333630810
   0.101509925   0.767873492   0.666369192
   0.434870529   0.101480776   0.999999995
   0.434827397   0.101504025   0.333307461
   0.434827397   0.101504022   0.666692557
   0.434847776   0.434855427   0.999999997
   0.434812787   0.434826451   0.333330351
   0.434812784   0.434826449   0.666669656
   0.434794987   0.768128560   0.333278035
   0.434794987   0.768128557   0.666721981
   0.767805795   0.101746934   0.999999989
   0.767872399   0.101497734   0.333638108
   0.767872401   0.101497735   0.666361896
   0.768170207   0.434827053   0.000000000
   0.768176378   0.434829835   0.333331743
   0.768176380   0.434829838   0.666668263
   0.767326080   0.767402374   0.999999996
   0.768256028   0.768255194   0.333122040
   0.768256028   0.768255194   0.666877965
   0.232639136   0.232650060   0.999999992
   0.231750184   0.231756999   0.333143327
   0.231750187   0.231757000   0.666856690
   0.231738736   0.565065636   0.999999993
   0.231833197   0.565166927   0.333322404
   0.231833202   0.565166932   0.666677599
   0.232539515   0.898081651   0.999999996
   0.232077650   0.898464634   0.333659628
   0.232077648   0.898464635   0.666340395
   0.565166087   0.231851420   0.999999998
   0.565164457   0.231833044   0.333319297
   0.565164458   0.231833046   0.666680712
   0.564980461   0.565495435   0.999999997
   0.565148336   0.565137572   0.333360069
   0.565148337   0.565137573   0.666639945
   0.562685801   0.895998875   0.999999991
   0.565371127   0.898695796   0.333484661
   0.565371125   0.898695793   0.666515343
   0.898262023   0.232204342   0.999999995
   0.898488530   0.232113875   0.333631464
   0.898488531   0.232113876   0.666368546
   0.898497501   0.565171494   0.999999998
   0.898509064   0.565177863   0.333327472
   0.898509063   0.565177864   0.666672533
   0.896586169   0.896570897   0.999999998
   0.898201351   0.898198291   0.334160750
   0.898201350   0.898198291   0.665839266
   0.065058636   0.268532525   0.166968771
   0.065155102   0.268085696   0.499999987
   0.065058631   0.268532528   0.833031238
   0.065149907   0.601516910   0.166698997
   0.065163524   0.601503744   0.499999996
   0.065149906   0.601516910   0.833301012
   0.066605981   0.933382464   0.170298889
   0.064952686   0.935038640   0.499999995
   0.066605980   0.933382465   0.829701106
   0.398481524   0.268141481   0.166667701
   0.398505192   0.268167126   0.499999991
   0.398481521   0.268141481   0.833332309
   0.398801517   0.602229695   0.165764006
   0.398483659   0.601474064   0.499999988
   0.398801515   0.602229696   0.834235991
   0.398608114   0.934023914   0.165723693
   0.398404941   0.934918551   0.499999990
   0.398608111   0.934023917   0.834276313
   0.731963095   0.268040743   0.166652807
   0.731834892   0.268168753   0.499999998
   0.731963094   0.268040743   0.833347197
   0.731781180   0.601579167   0.166588443
   0.731862302   0.601486288   0.499999995
   0.731781179   0.601579168   0.833411567
   0.731383083   0.934900058   0.166873755
   0.731984831   0.934870467   0.499999992
   0.731383082   0.934900061   0.833126249
   0.268598687   0.064976326   0.166893524
   0.268080481   0.065182514   0.499999985
   0.268598693   0.064976320   0.833106492
   0.268147240   0.398452476   0.166685173
   0.268160165   0.398495770   0.499999992
   0.268147240   0.398452474   0.833314840
   0.268758856   0.732265079   0.165764531
   0.268133556   0.731823840   0.499999991
   0.268758858   0.732265076   0.834235478
   0.601466425   0.065102303   0.166582483
   0.601534383   0.065246699   0.499999993
   0.601466422   0.065102305   0.833417516
   0.601509470   0.398483129   0.166653058
   0.601498937   0.398491896   0.499999990
   0.601509471   0.398483127   0.833346955
   0.600720186   0.731977977   0.165710606
   0.601586116   0.731748583   0.499999996
   0.600720184   0.731977978   0.834289400
   0.933382630   0.066621048   0.170303620
   0.935048804   0.064954958   0.499999998
   0.933382629   0.066621046   0.829696392
   0.934813848   0.398492084   0.166675481
   0.934823708   0.398491108   0.499999992
   0.934813851   0.398492082   0.833324522
   0.934944411   0.731460673   0.166974583
   0.934846820   0.731911067   0.499999998
   0.934944408   0.731460673   0.833025427
H107LiMg53
   1.00000000
   13.503703975   0.000100379   0.000000001
   0.000100379   13.503703684   0.000000001
   0.000000001   0.000000000   9.029442811
  Li  Mg  H
  1  53  107
Direct configuration=     4
   0.999959035   0.000043416   0.999999993
   0.000010561   0.000011549   0.329248899
   0.000010551   0.000011558   0.670751108
   0.000040031   0.333068547   0.999999987
   0.999956803   0.333228849   0.333522649
   0.999956812   0.333228842   0.666477327
   0.999927750   0.666959461   0.000000003
   0.000001739   0.666778297   0.333573752
   0.000001737   0.666778289   0.666426232
   0.332846700   0.000430014   0.000000003
   0.333209117   0.999705983   0.333125398
   0.333209115   0.999705984   0.666874551
   0.333560116   0.333501502   0.000000006
   0.333049152   0.333004616   0.333337991
   0.333049154   0.333004617   0.666662014
   0.328958820   0.663022245   0.999999983
   0.333072723   0.666727402   0.333315456
   0.333072730   0.666727414   0.666684544
   0.666447584   0.999479390   0.000000002
   0.666981815   0.000253376   0.333375521
   0.666981816   0.000253386   0.666624456
   0.667082083   0.332962368   0.999999990
   0.666840581   0.333181703   0.333171441
   0.666840591   0.333181721   0.666828568
   0.666866165   0.666222911   0.999999989
   0.666705568   0.666932997   0.332894895
   0.666705567   0.666933013   0.667105126
   0.164819923   0.164738169   0.165512638
   0.166900641   0.166944034   0.500000036
   0.164819920   0.164738162   0.834487362
   0.166409920   0.499868932   0.166757926
   0.166581227   0.499962118   0.500000047
   0.166409925   0.499868941   0.833242036
   0.165921461   0.834307532   0.166757749
   0.166151337   0.833961915   0.499999992
   0.165921430   0.834307562   0.833242276
   0.500005368   0.166609574   0.166611489
   0.499973368   0.166672089   0.499999978
   0.500005377   0.166609580   0.833388534
   0.500050376   0.500179749   0.166654560
   0.500100333   0.500012596   0.499999981
   0.500050376   0.500179761   0.833345485
   0.503570040   0.837026916   0.174087871
   0.499800893   0.833180703   0.499999986
   0.503570056   0.837026856   0.825912173
   0.834329366   0.165801169   0.166817571
   0.833856236   0.166140349   0.500000043
   0.834329362   0.165801163   0.833182418
   0.833391375   0.500015694   0.166609475
   0.833426862   0.500001084   0.499999999
   0.833391386   0.500015698   0.833390517
   0.835271523   0.835204785   0.165511891
   0.833155333   0.833073369   0.500000043
   0.835271509   0.835204806   0.834488101
   0.103290726   0.103288448   0.999999985
   0.101744731   0.101756216   0.334241160
   0.101744738   0.101756224   0.665758827
   0.101550630   0.434844705   0.000000001
   0.101521272   0.434846312   0.333304433
   0.101521284   0.434846320   0.666695553
   0.102007997   0.767750126   0.999999980
   0.101775479   0.767599676   0.333934817
   0.101775474   0.767599679   0.666065196
   0.434885869   0.101443502   0.999999988
   0.434789075   0.101412273   0.333250841
   0.434789074   0.101412272   0.666749165
   0.434870969   0.434920312   0.999999985
   0.434791532   0.434874204   0.333292789
   0.434791523   0.434874197   0.666707208
   0.434929930   0.768242433   0.333948147
   0.434929929   0.768242431   0.666051862
   0.767824594   0.102014274   0.999999998
   0.767563317   0.101662852   0.333938012
   0.767563334   0.101662867   0.666061978
   0.768196395   0.434904095   0.999999993
   0.768218738   0.434894490   0.333323703
   0.768218717   0.434894464   0.666676297
   0.766983847   0.767143158   0.999999991
   0.768544412   0.768598072   0.332100615
   0.768544411   0.768598076   0.667899374
   0.232999022   0.232986296   0.999999993
   0.231367205   0.231363858   0.332186027
   0.231367193   0.231363849   0.667813951
   0.230380371   0.563670432   0.000000001
   0.231833740   0.565144480   0.333206945
   0.231833710   0.565144447   0.666793073
   0.232861183   0.897686665   0.999999986
   0.232330925   0.898241917   0.334004484
   0.232330928   0.898241921   0.665995526
   0.565105272   0.231831728   0.999999989
   0.565110008   0.231800605   0.333295813
   0.565110003   0.231800601   0.666704209
   0.564761680   0.565731642   0.999999987
   0.565146648   0.565138639   0.333367455
   0.565146651   0.565138635   0.666632552
   0.561146799   0.894424998   0.000000001
   0.566335375   0.899658286   0.336000568
   0.566335386   0.899658298   0.663999405
   0.898066939   0.232258597   0.999999989
   0.898282315   0.232382385   0.333966951
   0.898282307   0.232382381   0.666033020
   0.898526895   0.565246874   0.999999991
   0.898496322   0.565174809   0.333329957
   0.898496328   0.565174818   0.666670082
   0.896746253   0.896729542   0.999999996
   0.898262399   0.898257971   0.334214867
   0.898262391   0.898257965   0.665785114
   0.065054311   0.268645294   0.167085643
   0.065077864   0.268114482   0.500000027
   0.065054316   0.268645285   0.832914377
   0.065153209   0.601522038   0.166653084
   0.065102781   0.601515979   0.499999989
   0.065153214   0.601522034   0.833346912
   0.066121522   0.933866195   0.172203167
   0.064391347   0.935593085   0.499999984
   0.066121567   0.933866137   0.827796857
   0.398560172   0.268158085   0.166738094
   0.398519725   0.268187450   0.499999993
   0.398560174   0.268158090   0.833261893
   0.399261335   0.602852473   0.165038698
   0.398452572   0.601440101   0.499999989
   0.399261336   0.602852467   0.834961327
   0.398388784   0.933451937   0.165225093
   0.398393672   0.935023758   0.500000004
   0.398388769   0.933451953   0.834774906
   0.732587096   0.267413083   0.166676977
   0.731843635   0.268175045   0.499999995
   0.732587099   0.267413079   0.833323055
   0.731633634   0.601601485   0.166652126
   0.731862148   0.601454663   0.499999983
   0.731633636   0.601601482   0.833347895
   0.730995149   0.934772630   0.166727473
   0.731940825   0.934960550   0.499999992
   0.730995177   0.934772577   0.833272550
   0.268830765   0.064841814   0.167009226
   0.268085912   0.065142528   0.500000032
   0.268830763   0.064841819   0.832990802
   0.268168126   0.398547580   0.166739397
   0.268179244   0.398505806   0.499999990
   0.268168121   0.398547589   0.833260603
   0.268762804   0.733330196   0.165086874
   0.268061451   0.731830894   0.499999992
   0.268762799   0.733330201   0.834913133
   0.601338609   0.064836658   0.166294456
   0.601578061   0.065168547   0.499999995
   0.601338588   0.064836674   0.833705548
   0.601528158   0.398469614   0.166612860
   0.601527271   0.398455476   0.499999994
   0.601528156   0.398469616   0.833387127
   0.600057802   0.731749358   0.165307647
   0.601620354   0.731730231   0.499999989
   0.600057783   0.731749380   0.834692346
   0.933837263   0.066163216   0.172214949
   0.935615483   0.064403425   0.499999988
   0.933837256   0.066163217   0.827785056
   0.934806359   0.398491020   0.166642280
   0.934886173   0.398459682   0.499999998
   0.934806348   0.398491031   0.833357738
   0.934948367   0.731328288   0.167094405
   0.934905978   0.731889363   0.499999997
   0.934948363   0.731328286   0.832905607
H107LiMg53
   1.00000000
   13.503771096   0.000110002   0.000000001
   0.000110002   13.503770772   0.000000001
   0.000000001   0.000000001   9.029399168
  Li  Mg  H
  1  53  107
Direct configuration=     5
   0.999955543   0.000047496   0.999999994
   0.000011877   0.000013185   0.329293814
   0.000011871   0.000013194   0.670706193
   0.000046279   0.333069472   0.999999990
   0.999953427   0.333232894   0.333533612
   0.999953434   0.333232886   0.666466359
   0.999924853   0.666966128   0.000000004
   0.000003247   0.666774605   0.333586611
   0.000003244   0.666774598   0.666413373
   0.332833168   0.000441413   0.000000007
   0.333217832   0.999680680   0.333106217
   0.333217829   0.999680682   0.666893732
   0.333584182   0.333521272   0.000000008
   0.333026194   0.332979625   0.333330911
   0.333026195   0.332979626   0.666669095
   0.328702146   0.662838094   0.999999984
   0.333059692   0.666748971   0.333284883
   0.333059697   0.666748982   0.666715113
   0.666374897   0.999402116   0.000000004
   0.667029772   0.000308530   0.333386273
   0.667029772   0.000308539   0.666613703
   0.667120849   0.332927765   0.999999993
   0.666859545   0.333165546   0.333160029
   0.666859554   0.333165563   0.666839977
   0.666855985   0.666190690   0.999999992
   0.666706776   0.666960614   0.332856009
   0.666706774   0.666960626   0.667144008
   0.164764863   0.164676555   0.165508835
   0.166928265   0.166971828   0.500000034