Mg28Ni4O32
   1.00000000
   8.440357836   0.000003653   0.000000000
   0.000003653   8.440357836  -0.000000000
   0.000000000  -0.000000000   8.440352061
  Ni  Mg  O
  4  28  32
Direct configuration=     1
   0.000034417   0.000034417   0.000135410
   0.000034417   0.000034417   0.499864590
   0.000047534   0.249831679   0.250000000
   0.249831679   0.000047534   0.250000000
   0.999972562   0.499926854   0.000018159
   0.999972562   0.499926854   0.499981841
   0.499926854   0.999972562   0.000018159
   0.499926854   0.999972562   0.499981841
   0.500033583   0.500033583   0.999969571
   0.500033583   0.500033583   0.500030429
   0.999972578   0.249873049   0.750000000
   0.000073021   0.750275891   0.250000000
   0.999972017   0.750154299   0.750000000
   0.499963104   0.249985222   0.250000000
   0.500037768   0.250019083   0.750000000
   0.499938539   0.750005123   0.250000000
   0.500017260   0.749996412   0.750000000
   0.249873049   0.999972578   0.750000000
   0.249985222   0.499963104   0.250000000
   0.250019083   0.500037768   0.750000000
   0.750275891   0.000073021   0.250000000
   0.750154299   0.999972017   0.750000000
   0.750005123   0.499938539   0.250000000
   0.749996412   0.500017260   0.750000000
   0.249829776   0.249829776   0.000150043
   0.249829776   0.249829776   0.499849957
   0.249946834   0.750159882   0.000014897
   0.249946834   0.750159882   0.499985103
   0.750159882   0.249946834   0.000014897
   0.750159882   0.249946834   0.499985103
   0.750046472   0.750046472   0.999945415
   0.750046472   0.750046472   0.500054585
   0.249924364   0.249924364   0.250000000
   0.249912421   0.249912421   0.750000000
   0.249863953   0.749948548   0.250000000
   0.249948787   0.750077572   0.750000000
   0.749948548   0.249863953   0.250000000
   0.750077572   0.249948787   0.750000000
   0.750052437   0.750052437   0.250000000
   0.750037480   0.750037480   0.750000000
   0.249956189   0.000053861   0.000013496
   0.249956189   0.000053861   0.499986504
   0.249900035   0.500005376   0.000110641
   0.249900035   0.500005376   0.499889359
   0.749940885   0.000042295   0.000080014
   0.749940885   0.000042295   0.499919986
   0.750088157   0.499992216   0.000050582
   0.750088157   0.499992216   0.499949418
   0.000053861   0.249956189   0.000013496
   0.000053861   0.249956189   0.499986504
   0.000042295   0.749940885   0.000080014
   0.000042295   0.749940885   0.499919986
   0.500005376   0.249900035   0.000110641
   0.500005376   0.249900035   0.499889359
   0.499992216   0.750088157   0.000050582
   0.499992216   0.750088157   0.499949418
   0.000124529   0.000124529   0.250000000
   0.000065565   0.000065565   0.750000000
   0.000086715   0.500071954   0.250000000
   0.000030393   0.499935514   0.750000000
   0.500071954   0.000086715   0.250000000
   0.499935514   0.000030393   0.750000000
   0.499915413   0.499915413   0.250000000
   0.499982985   0.499982985   0.750000000
Mg28Ni4O32
   1.00000000
   8.443171846   0.000032331   0.000000000
   0.000032331   8.443171846   0.000000000
   0.000000000   0.000000000   8.443122002
  Ni  Mg  O
  4  28  32
Direct configuration=     2
   0.000252383   0.000252383   0.001057056
   0.000252383   0.000252383   0.498942944
   0.000366038   0.248775448   0.250000000
   0.248775448   0.000366038   0.250000000
   0.999846292   0.499451698   0.000194285
   0.999846292   0.499451698   0.499805715
   0.499451698   0.999846292   0.000194285
   0.499451698   0.999846292   0.499805715
   0.500204434   0.500204434   0.999826289
   0.500204434   0.500204434   0.500173711
   0.999853919   0.249012390   0.750000000
   0.000582947   0.752083314   0.250000000
   0.999823032   0.751183547   0.750000000
   0.499735672   0.249804806   0.250000000
   0.500237195   0.250052996   0.750000000
   0.499531507   0.750110126   0.250000000
   0.500098512   0.750071851   0.750000000
   0.249012390   0.999853919   0.750000000
   0.249804806   0.499735672   0.250000000
   0.250052996   0.500237195   0.750000000
   0.752083314   0.000582947   0.250000000
   0.751183547   0.999823032   0.750000000
   0.750110126   0.499531507   0.250000000
   0.750071851   0.500098512   0.750000000
   0.248670457   0.248670457   0.001169550
   0.248670457   0.248670457   0.498830450
   0.249525792   0.751234226   0.000157746
   0.249525792   0.751234226   0.499842254
   0.751234226   0.249525792   0.000157746
   0.751234226   0.249525792   0.499842254
   0.750405460   0.750405460   0.999664547
   0.750405460   0.750405460   0.500335453
   0.249323523   0.249323523   0.250000000
   0.249305365   0.249305365   0.750000000
   0.248944174   0.749719236   0.250000000
   0.249596062   0.750640169   0.750000000
   0.749719236   0.248944174   0.250000000
   0.750640169   0.249596062   0.750000000
   0.750443459   0.750443459   0.250000000
   0.750309953   0.750309953   0.750000000
   0.249584007   0.000397655   0.000146369
   0.249584007   0.000397655   0.499853631
   0.249255912   0.500031864   0.000838401
   0.249255912   0.500031864   0.499161599
   0.749640826   0.000311524   0.000598422
   0.749640826   0.000311524   0.499401578
   0.750667885   0.499924235   0.000369734
   0.750667885   0.499924235   0.499630266
   0.000397655   0.249584007   0.000146369
   0.000397655   0.249584007   0.499853631
   0.000311524   0.749640826   0.000598422
   0.000311524   0.749640826   0.499401578
   0.500031864   0.249255912   0.000838401
   0.500031864   0.249255912   0.499161599
   0.499924235   0.750667885   0.000369734
   0.499924235   0.750667885   0.499630266
   0.001040448   0.001040448   0.250000000
   0.000478668   0.000478668   0.750000000
   0.000628080   0.500474368   0.250000000
   0.000204901   0.499503268   0.750000000
   0.500474368   0.000628080   0.250000000
   0.499503268   0.000204901   0.750000000
   0.499356989   0.499356989   0.250000000
   0.499898739   0.499898739   0.750000000
Mg28Ni4O32
   1.00000000
   8.443946189   0.000039980   0.000000000
   0.000039980   8.443946189  -0.000000000
   0.000000000  -0.000000000   8.443884641
  Ni  Mg  O
  4  28  32
Direct configuration=     3
   0.000266971   0.000266971   0.001177050
   0.000266971   0.000266971   0.498822950
   0.000402642   0.248716072   0.250000000
   0.248716072   0.000402642   0.250000000
   0.999880666   0.499407780   0.000261732
   0.999880666   0.499407780   0.499738268
   0.499407780   0.999880666   0.000261732
   0.499407780   0.999880666   0.499738268
   0.500178850   0.500178850   0.999860569
   0.500178850   0.500178850   0.500139431
   0.999896449   0.248901018   0.750000000
   0.000658868   0.752265243   0.250000000
   0.999838799   0.751304617   0.750000000
   0.499725519   0.249714255   0.250000000
   0.500215996   0.249976872   0.750000000
   0.499486746   0.750183139   0.250000000
   0.500078507   0.750166725   0.750000000
   0.248901018   0.999896449   0.750000000
   0.249714255   0.499725519   0.250000000
   0.249976872   0.500215996   0.750000000
   0.752265243   0.000658868   0.250000000
   0.751304617   0.999838799   0.750000000
   0.750183139   0.499486746   0.250000000
   0.750166725   0.500078507   0.750000000
   0.248515997   0.248515997   0.001304548
   0.248515997   0.248515997   0.498695452
   0.249420746   0.751367015   0.000209909
   0.249420746   0.751367015   0.499790091
   0.751367015   0.249420746   0.000209909
   0.751367015   0.249420746   0.499790091
   0.750488479   0.750488479   0.999704045
   0.750488479   0.750488479   0.500295955
   0.249174339   0.249174339   0.250000000
   0.249214603   0.249214603   0.750000000
   0.248829348   0.749793664   0.250000000
   0.249539609   0.750744598   0.750000000
   0.749793664   0.248829348   0.250000000
   0.750744598   0.249539609   0.750000000
   0.750530894   0.750530894   0.250000000
   0.750365562   0.750365562   0.750000000
   0.249472631   0.000421125   0.000198372
   0.249472631   0.000421125   0.499801628
   0.249196496   0.500023859   0.000914069
   0.249196496   0.500023859   0.499085931
   0.749689954   0.000330654   0.000647901
   0.749689954   0.000330654   0.499352099
   0.750731123   0.499899938   0.000396255
   0.750731123   0.499899938   0.499603745
   0.000421125   0.249472631   0.000198372
   0.000421125   0.249472631   0.499801628
   0.000330654   0.749689954   0.000647901
   0.000330654   0.749689954   0.499352099
   0.500023859   0.249196496   0.000914069
   0.500023859   0.249196496   0.499085931
   0.499899938   0.750731123   0.000396255
   0.499899938   0.750731123   0.499603745
   0.001216001   0.001216001   0.250000000
   0.000501751   0.000501751   0.750000000
   0.000656295   0.500455449   0.250000000
   0.000205712   0.499448976   0.750000000
   0.500455449   0.000656295   0.250000000
   0.499448976   0.000205712   0.750000000
   0.499296914   0.499296914   0.250000000
   0.499910251   0.499910251   0.750000000
Mg28Ni4O32
   1.00000000
   8.449615961   0.000095127   0.000000000
   0.000095127   8.449615961  -0.000000000
   0.000000000  -0.000000000   8.449469322
  Ni  Mg  O
  4  28  32
Direct configuration=     4
   0.000285622   0.000285622   0.001739743
   0.000285622   0.000285622   0.498260257
   0.000557066   0.248737636   0.250000000
   0.248737636   0.000557066   0.250000000
   0.000225522   0.499264372   0.000741968
   0.000225522   0.499264372   0.499258032
   0.499264372   0.000225522   0.000741968
   0.499264372   0.000225522   0.499258032
   0.499879928   0.499879928   0.000209106
   0.499879928   0.499879928   0.499790894
   0.000312150   0.248366438   0.750000000
   0.001050190   0.752942899   0.250000000
   0.000040852   0.751832971   0.750000000
   0.499748860   0.249043929   0.250000000
   0.499941844   0.249328135   0.750000000
   0.499308972   0.750746150   0.250000000
   0.499870028   0.750929980   0.750000000
   0.248366438   0.000312150   0.750000000
   0.249043929   0.499748860   0.250000000
   0.249328135   0.499941844   0.750000000
   0.752942899   0.001050190   0.250000000
   0.751832971   0.000040852   0.750000000
   0.750746150   0.499308972   0.250000000
   0.750929980   0.499870028   0.750000000
   0.247763715   0.247763715   0.001958563
   0.247763715   0.247763715   0.498041437
   0.248741718   0.751977089   0.000568849
   0.248741718   0.751977089   0.499431151
   0.751977089   0.248741718   0.000568849
   0.751977089   0.248741718   0.499431151
   0.751008579   0.751008579   0.000167861
   0.751008579   0.751008579   0.499832139
   0.248216915   0.248216915   0.250000000
   0.248737156   0.248737156   0.750000000
   0.248298066   0.750541334   0.250000000
   0.249203145   0.751359589   0.750000000
   0.750541334   0.248298066   0.250000000
   0.751359589   0.249203145   0.750000000
   0.751111123   0.751111123   0.250000000
   0.750727598   0.750727598   0.750000000
   0.248713666   0.000451179   0.000572289
   0.248713666   0.000451179   0.499427711
   0.248978458   0.499928987   0.001211536
   0.248978458   0.499928987   0.498788464
   0.750258082   0.000362038   0.000835169
   0.750258082   0.000362038   0.499164831
   0.751008491   0.499716167   0.000495419
   0.751008491   0.499716167   0.499504581
   0.000451179   0.248713666   0.000572289
   0.000451179   0.248713666   0.499427711
   0.000362038   0.750258082   0.000835169
   0.000362038   0.750258082   0.499164831
   0.499928987   0.248978458   0.001211536
   0.499928987   0.248978458   0.498788464
   0.499716167   0.751008491   0.000495419
   0.499716167   0.751008491   0.499504581
   0.002250051   0.002250051   0.250000000
   0.000490230   0.000490230   0.750000000
   0.000632040   0.500114045   0.250000000
   0.000155671   0.499196441   0.750000000
   0.500114045   0.000632040   0.250000000
   0.499196441   0.000155671   0.750000000
   0.499054699   0.499054699   0.250000000
   0.500026570   0.500026570   0.750000000
Mg28Ni4O32
   1.00000000
   8.452285593   0.000120237   0.000000000
   0.000120237   8.452285593  -0.000000000
   0.000000000  -0.000000000   8.452098551
  Ni  Mg  O
  4  28  32
Direct configuration=     5
   0.000250519   0.000250519   0.001787366
   0.000250519   0.000250519   0.498212634
   0.000556367   0.248977466   0.250000000
   0.248977466   0.000556367   0.250000000
   0.000387577   0.499296054   0.000904463
   0.000387577   0.499296054   0.499095537
   0.499296054   0.000387577   0.000904463
   0.499296054   0.000387577   0.499095537
   0.499715396   0.499715396   0.000372703
   0.499715396   0.499715396   0.499627297
   0.000510408   0.248295963   0.750000000
   0.001109202   0.752892026   0.250000000
   0.000151346   0.751855405   0.750000000
   0.499804908   0.248806439   0.250000000
   0.499783752   0.249059098   0.750000000
   0.499320790   0.750961155   0.250000000
   0.499762927   0.751239070   0.750000000
   0.248295963   0.000510408   0.750000000
   0.248806439   0.499804908   0.250000000
   0.249059098   0.499783752   0.750000000
   0.752892026   0.001109202   0.250000000
   0.751855405   0.000151346   0.750000000
   0.750961155   0.499320790   0.250000000
   0.751239070   0.499762927   0.750000000
   0.247663792   0.247663792   0.002041616
   0.247663792   0.247663792   0.497958384
   0.248543394   0.752032022   0.000674716
   0.248543394   0.752032022   0.499325284
   0.752032022   0.248543394   0.000674716
   0.752032022   0.248543394   0.499325284
   0.751147677   0.751147677   0.000414791
   0.751147677   0.751147677   0.499585209
   0.247950565   0.247950565   0.250000000
   0.248650829   0.248650829   0.750000000
   0.248248680   0.750916985   0.250000000
   0.249088646   0.751515839   0.750000000
   0.750916985   0.248248680   0.250000000
   0.751515839   0.249088646   0.750000000
   0.751324248   0.751324248   0.250000000
   0.750859998   0.750859998   0.750000000
   0.248469425   0.000392506   0.000701497
   0.248469425   0.000392506   0.499298503
   0.248974917   0.499862184   0.001207051
   0.248974917   0.499862184   0.498792949
   0.750571618   0.000320881   0.000839929
   0.750571618   0.000320881   0.499160071
   0.751043913   0.499635152   0.000515216
   0.751043913   0.499635152   0.499484784
   0.000392506   0.248469425   0.000701497
   0.000392506   0.248469425   0.499298503
   0.000320881   0.750571618   0.000839929
   0.000320881   0.750571618   0.499160071
   0.499862184   0.248974917   0.001207051
   0.499862184   0.248974917   0.498792949
   0.499635152   0.751043913   0.000515216
   0.499635152   0.751043913   0.499484784
   0.002497925   0.002497925   0.250000000
   0.000393551   0.000393551   0.750000000
   0.000512909   0.499907157   0.250000000
   0.000139436   0.499172603   0.750000000
   0.499907157   0.000512909   0.250000000
   0.499172603   0.000139436   0.750000000
   0.499057603   0.499057603   0.250000000
   0.500062651   0.500062651   0.750000000
Mg28Ni4O32
   1.00000000
   8.456759016   0.000161251   0.000000000
   0.000161251   8.456759016  -0.000000000
   0.000000000  -0.000000000   8.456503009
  Ni  Mg  O
  4  28  32
Direct configuration=     6
   0.000180420   0.000180420   0.001686766
   0.000180420   0.000180420   0.498313234
   0.000503228   0.249441490   0.250000000
   0.249441490   0.000503228   0.250000000
   0.000568608   0.499400696   0.001045678
   0.000568608   0.499400696   0.498954322
   0.499400696   0.000568608   0.001045678
   0.499400696   0.000568608   0.498954322
   0.499495361   0.499495361   0.000553668
   0.499495361   0.499495361   0.499446332
   0.000745421   0.248315609   0.750000000
   0.001088722   0.752606430   0.250000000
   0.000285958   0.751728928   0.750000000
   0.499905802   0.248592483   0.250000000
   0.499569236   0.248777874   0.750000000
   0.499409907   0.751178103   0.250000000
   0.499624038   0.751575083   0.750000000
   0.248315609   0.000745421   0.750000000
   0.248592483   0.499905802   0.250000000
   0.248777874   0.499569236   0.750000000
   0.752606430   0.001088722   0.250000000
   0.751728928   0.000285958   0.750000000
   0.751178103   0.499409907   0.250000000
   0.751575083   0.499624038   0.750000000
   0.247703954   0.247703954   0.001996626
   0.247703954   0.247703954   0.498003374
   0.248396429   0.751948995   0.000735508
   0.248396429   0.751948995   0.499264492
   0.751948995   0.248396429   0.000735508
   0.751948995   0.248396429   0.499264492
   0.751228456   0.751228456   0.000722995
   0.751228456   0.751228456   0.499277005
   0.247788843   0.247788843   0.250000000
   0.248637522   0.248637522   0.750000000
   0.248320545   0.751393606   0.250000000
   0.248934234   0.751616954   0.750000000
   0.751393606   0.248320545   0.250000000
   0.751616954   0.248934234   0.750000000
   0.751589524   0.751589524   0.250000000
   0.751025896   0.751025896   0.750000000
   0.248262880   0.000270201   0.000816221
   0.248262880   0.000270201   0.499183779
   0.248989640   0.499741480   0.001119752
   0.248989640   0.499741480   0.498880248
   0.750989372   0.000232342   0.000823162
   0.750989372   0.000232342   0.499176838
   0.751058425   0.499523325   0.000567956
   0.751058425   0.499523325   0.499432044
   0.000270201   0.248262880   0.000816221
   0.000270201   0.248262880   0.499183779
   0.000232342   0.750989372   0.000823162
   0.000232342   0.750989372   0.499176838
   0.499741480   0.248989640   0.001119752
   0.499741480   0.248989640   0.498880248
   0.499523325   0.751058425   0.000567956
   0.499523325   0.751058425   0.499432044
   0.002623245   0.002623245   0.250000000
   0.000205715   0.000205715   0.750000000
   0.000299060   0.499657558   0.250000000
   0.000172977   0.499208709   0.750000000
   0.499657558   0.000299060   0.250000000
   0.499208709   0.000172977   0.750000000
   0.499138097   0.499138097   0.250000000
   0.500058040   0.500058040   0.750000000
Mg28Ni4O32
   1.00000000
   8.463377485   0.000221098   0.000000000
   0.000221098   8.463377485  -0.000000000
   0.000000000  -0.000000000   8.463017426
  Ni  Mg  O
  4  28  32
Direct configuration=     7
   0.000107026   0.000107026   0.001469442
   0.000107026   0.000107026   0.498530558
   0.000418415   0.249968960   0.250000000
   0.249968960   0.000418415   0.250000000
   0.000681813   0.499536510   0.001098557
   0.000681813   0.499536510   0.498901443
   0.499536510   0.000681813   0.001098557
   0.499536510   0.000681813   0.498901443
   0.499293586   0.499293586   0.000665247
   0.499293586   0.499293586   0.499334753
   0.000920746   0.248387943   0.750000000
   0.000993692   0.752242613   0.250000000
   0.000379656   0.751506668   0.750000000
   0.500018237   0.248507741   0.250000000
   0.499371795   0.248612421   0.750000000
   0.499554776   0.751304816   0.250000000
   0.499499512   0.751810776   0.750000000
   0.248387943   0.000920746   0.750000000
   0.248507741   0.500018237   0.250000000
   0.248612421   0.499371795   0.750000000
   0.752242613   0.000993692   0.250000000
   0.751506668   0.000379656   0.750000000
   0.751304816   0.499554776   0.250000000
   0.751810776   0.499499512   0.750000000
   0.247846165   0.247846165   0.001856549
   0.247846165   0.247846165   0.498143451
   0.248364129   0.751775162   0.000699734
   0.248364129   0.751775162   0.499300266
   0.751775162   0.248364129   0.000699734
   0.751775162   0.248364129   0.499300266
   0.751203741   0.751203741   0.000965411
   0.751203741   0.751203741   0.499034589
   0.247837161   0.247837161   0.250000000
   0.248693060   0.248693060   0.750000000
   0.248478656   0.751796677   0.250000000
   0.248742393   0.751627854   0.750000000
   0.751796677   0.248478656   0.250000000
   0.751627854   0.248742393   0.750000000
   0.751867135   0.751867135   0.250000000
   0.751195665   0.751195665   0.750000000
   0.248186383   0.000130132   0.000858255
   0.248186383   0.000130132   0.499141745
   0.248952153   0.499581617   0.001006515
   0.248952153   0.499581617   0.498993485
   0.751359074   0.000130053   0.000835983
   0.751359074   0.000130053   0.499164017
   0.751090548   0.499401745   0.000689914
   0.751090548   0.499401745   0.499310086
   0.000130132   0.248186383   0.000858255
   0.000130132   0.248186383   0.499141745
   0.000130053   0.751359074   0.000835983
   0.000130053   0.751359074   0.499164017
   0.499581617   0.248952153   0.001006515
   0.499581617   0.248952153   0.498993485
   0.499401745   0.751090548   0.000689914
   0.499401745   0.751090548   0.499310086
   0.002575207   0.002575207   0.250000000
   0.999988917   0.999988917   0.750000000
   0.000081542   0.499508691   0.250000000
   0.000301973   0.499290951   0.750000000
   0.499508691   0.000081542   0.250000000
   0.499290951   0.000301973   0.750000000
   0.499264003   0.499264003   0.250000000
   0.499971678   0.499971678   0.750000000
Mg28Ni4O32
   1.00000000
   8.475539900   0.000330564   0.000000000
   0.000330564   8.475539900  -0.000000000
   0.000000000  -0.000000000   8.474985252
  Ni  Mg  O
  4  28  32
Direct configuration=     8
   0.000037654   0.000037654   0.001100398
   0.000037654   0.000037654   0.498899602
   0.000296273   0.250577735   0.250000000
   0.250577735   0.000296273   0.250000000
   0.000683674   0.499710331   0.001020209
   0.000683674   0.499710331   0.498979791
   0.499710331   0.000683674   0.001020209
   0.499710331   0.000683674   0.498979791
   0.499106088   0.499106088   0.000668147
   0.499106088   0.499106088   0.499331853
   0.001004146   0.248496855   0.750000000
   0.000804319   0.751842315   0.250000000
   0.000398422   0.751168431   0.750000000
   0.500153216   0.248623479   0.250000000
   0.499188862   0.248622816   0.750000000
   0.499784064   0.751299832   0.250000000
   0.499387580   0.751909946   0.750000000
   0.248496855   0.001004146   0.750000000
   0.248623479   0.500153216   0.250000000
   0.248622816   0.499188862   0.750000000
   0.751842315   0.000804319   0.250000000
   0.751168431   0.000398422   0.750000000
   0.751299832   0.499784064   0.250000000
   0.751909946   0.499387580   0.750000000
   0.248095962   0.248095962   0.001610985
   0.248095962   0.248095962   0.498389015
   0.248488700   0.751499118   0.000511657
   0.248488700   0.751499118   0.499488343
   0.751499118   0.248488700   0.000511657
   0.751499118   0.248488700   0.499488343
   0.751024729   0.751024729   0.001107402
   0.751024729   0.751024729   0.498892598
   0.248214575   0.248214575   0.250000000
   0.248826087   0.248826087   0.750000000
   0.248747310   0.752091793   0.250000000
   0.248461963   0.751514009   0.750000000
   0.752091793   0.248747310   0.250000000
   0.751514009   0.248461963   0.750000000
   0.752203069   0.752203069   0.250000000
   0.751379858   0.751379858   0.750000000
   0.248302954   0.999970367   0.000781201
   0.248302954   0.999970367   0.499218799
   0.248785336   0.499346822   0.000883546
   0.248785336   0.499346822   0.499116454
   0.751654443   0.000012046   0.000927295
   0.751654443   0.000012046   0.499072705
   0.751176853   0.499253878   0.000943319
   0.751176853   0.499253878   0.499056681
   0.999970367   0.248302954   0.000781201
   0.999970367   0.248302954   0.499218799
   0.000012046   0.751654443   0.000927295
   0.000012046   0.751654443   0.499072705
   0.499346822   0.248785336   0.000883546
   0.499346822   0.248785336   0.499116454
   0.499253878   0.751176853   0.000943319
   0.499253878   0.751176853   0.499056681
   0.002304349   0.002304349   0.250000000
   0.999732150   0.999732150   0.750000000
   0.999881390   0.499555906   0.250000000
   0.000601743   0.499434710   0.750000000
   0.499555906   0.999881390   0.250000000
   0.499434710   0.000601743   0.750000000
   0.499452621   0.499452621   0.250000000
   0.499742266   0.499742266   0.750000000
Mg28Ni4O32
   1.00000000
   8.488706067   0.000449117   0.000000000
   0.000449117   8.488706067  -0.000000000
   0.000000000  -0.000000000   8.487935969
  Ni  Mg  O
  4  28  32
Direct configuration=     9
   0.000040198   0.000040198   0.000800959
   0.000040198   0.000040198   0.499199041
   0.000219562   0.250778973   0.250000000
   0.250778973   0.000219562   0.250000000
   0.000480939   0.499798965   0.000778069
   0.000480939   0.499798965   0.499221931
   0.499798965   0.000480939   0.000778069
   0.499798965   0.000480939   0.499221931
   0.499102397   0.499102397   0.000478578
   0.499102397   0.499102397   0.499521422
   0.000843675   0.248567244   0.750000000
   0.000626695   0.751764947   0.250000000
   0.000255231   0.750929106   0.750000000
   0.500217842   0.249001602   0.250000000
   0.499186328   0.248934761   0.750000000
   0.499962748   0.751066041   0.250000000
   0.499393347   0.751676436   0.750000000
   0.248567244   0.000843675   0.750000000
   0.249001602   0.500217842   0.250000000
   0.248934761   0.499186328   0.750000000
   0.751764947   0.000626695   0.250000000
   0.750929106   0.000255231   0.750000000
   0.751066041   0.499962748   0.250000000
   0.751676436   0.499393347   0.750000000
   0.248307579   0.248307579   0.001402785
   0.248307579   0.248307579   0.498597215
   0.248776373   0.751287266   0.000223532
   0.248776373   0.751287266   0.499776468
   0.751287266   0.248776373   0.000223532
   0.751287266   0.248776373   0.499776468
   0.750731258   0.750731258   0.000945191
   0.750731258   0.750731258   0.499054809
   0.248860660   0.248860660   0.250000000
   0.248969843   0.248969843   0.750000000
   0.248986334   0.751916863   0.250000000
   0.248293444   0.751263934   0.750000000
   0.751916863   0.248986334   0.250000000
   0.751263934   0.248293444   0.750000000
   0.752322869   0.752322869   0.250000000
   0.751388693   0.751388693   0.750000000
   0.248670241   0.999921321   0.000545980
   0.248670241   0.999921321   0.499454020
   0.248538631   0.499194920   0.000853398
   0.248538631   0.499194920   0.499146602
   0.751537570   0.999972296   0.001070984
   0.751537570   0.999972296   0.498929016
   0.751262680   0.499199925   0.001182823
   0.751262680   0.499199925   0.498817177
   0.999921321   0.248670241   0.000545980
   0.999921321   0.248670241   0.499454020
   0.999972296   0.751537570   0.001070984
   0.999972296   0.751537570   0.498929016
   0.499194920   0.248538631   0.000853398
   0.499194920   0.248538631   0.499146602
   0.499199925   0.751262680   0.001182823
   0.499199925   0.751262680   0.498817177
   0.001897104   0.001897104   0.250000000
   0.999638385   0.999638385   0.750000000
   0.999907425   0.499933709   0.250000000
   0.000921036   0.499563678   0.750000000
   0.499933709   0.999907425   0.250000000
   0.499563678   0.000921036   0.750000000
   0.499596848   0.499596848   0.250000000
   0.499469519   0.499469519   0.750000000
Mg28Ni4O32
   1.00000000
   8.496788932   0.000522676   0.000000000
   0.000522676   8.496788932  -0.000000000
   0.000000000  -0.000000000   8.495880508
  Ni  Mg  O
  4  28  32
Direct configuration=     10
   0.000111091   0.000111091   0.000750477
   0.000111091   0.000111091   0.499249523
   0.000231833   0.250448607   0.250000000
   0.250448607   0.000231833   0.250000000
   0.000194206   0.499759978   0.000515710
   0.000194206   0.499759978   0.499484290
   0.499759978   0.000194206   0.000515710
   0.499759978   0.000194206   0.499484290
   0.499281820   0.499281820   0.000217584
   0.499281820   0.499281820   0.499782416
   0.000525571   0.248579099   0.750000000
   0.000572177   0.752045536   0.250000000
   0.000026178   0.750915198   0.750000000
   0.500187204   0.249425371   0.250000000
   0.499360610   0.249354804   0.750000000
   0.499990872   0.750742849   0.250000000
   0.499513902   0.751231913   0.750000000
   0.248579099   0.000525571   0.750000000
   0.249425371   0.500187204   0.250000000
   0.249354804   0.499360610   0.750000000
   0.752045536   0.000572177   0.250000000
   0.750915198   0.000026178   0.750000000
   0.750742849   0.499990872   0.250000000
   0.751231913   0.499513902   0.750000000
   0.248377732   0.248377732   0.001338734
   0.248377732   0.248377732   0.498661266
   0.249059582   0.751238841   0.000017770
   0.249059582   0.751238841   0.499982230
   0.751238841   0.249059582   0.000017770
   0.751238841   0.249059582   0.499982230
   0.750494387   0.750494387   0.000577372
   0.750494387   0.750494387   0.499422628
   0.249408093   0.249408093   0.250000000
   0.249043498   0.249043498   0.750000000
   0.249088247   0.751354123   0.250000000
   0.248393073   0.750994032   0.750000000
   0.751354123   0.249088247   0.250000000
   0.750994032   0.248393073   0.750000000
   0.752092307   0.752092307   0.250000000
   0.751150594   0.751150594   0.750000000
   0.249086447   0.000012822   0.000278486
   0.249086447   0.000012822   0.499721514
   0.248401079   0.499240549   0.000913253
   0.248401079   0.499240549   0.499086747
   0.751056103   0.000032467   0.001145100
   0.751056103   0.000032467   0.498854900
   0.751242368   0.499295134   0.001208489
   0.751242368   0.499295134   0.498791511
   0.000012822   0.249086447   0.000278486
   0.000012822   0.249086447   0.499721514
   0.000032467   0.751056103   0.001145100
   0.000032467   0.751056103   0.498854900
   0.499240549   0.248401079   0.000913253
   0.499240549   0.248401079   0.499086747
   0.499295134   0.751242368   0.001208489
   0.499295134   0.751242368   0.498791511
   0.001602921   0.001602921   0.250000000
   0.999769318   0.999769318   0.750000000
   0.000154511   0.500418085   0.250000000
   0.001020136   0.499613306   0.750000000
   0.500418085   0.000154511   0.250000000
   0.499613306   0.001020136   0.750000000
   0.499634212   0.499634212   0.250000000
   0.499342608   0.499342608   0.750000000
Mg28Ni4O32
   1.00000000
   8.499022083   0.000544541   0.000000000
   0.000544541   8.499022083  -0.000000000
   0.000000000  -0.000000000   8.498068295
  Ni  Mg  O
  4  28  32
Direct configuration=     11
   0.000182096   0.000182096   0.000874712
   0.000182096   0.000182096   0.499125288
   0.000292156   0.249980680   0.250000000
   0.249980680   0.000292156   0.250000000