Mg28Ni4O32
   1.00000000
   8.440337211   0.000001733  -0.000000000
   0.000001733   8.440337211  -0.000000000
  -0.000000000  -0.000000000   8.440349263
  Ni  Mg  O
  4  28  32
Direct configuration=     1
   0.999955913   0.999955913   0.999959842
   0.999955913   0.999955913   0.500040158
   0.499921520   0.250112132   0.250000000
   0.250112132   0.499921520   0.250000000
   0.000096833   0.499990203   0.000100532
   0.000096833   0.499990203   0.499899468
   0.499990203   0.000096833   0.000100532
   0.499990203   0.000096833   0.499899468
   0.499926778   0.499926778   0.000162633
   0.499926778   0.499926778   0.499837367
   0.000090975   0.249808209   0.250000000
   0.999973687   0.249784691   0.750000000
   0.000091395   0.750148516   0.250000000
   0.999987827   0.750207631   0.750000000
   0.500011797   0.249976076   0.750000000
   0.499893283   0.749940731   0.250000000
   0.500021567   0.750033970   0.750000000
   0.249808209   0.000090975   0.250000000
   0.249784691   0.999973687   0.750000000
   0.249976076   0.500011797   0.750000000
   0.750148516   0.000091395   0.250000000
   0.750207631   0.999987827   0.750000000
   0.749940731   0.499893283   0.250000000
   0.750033970   0.500021567   0.750000000
   0.249967244   0.249967244   0.000195729
   0.249967244   0.249967244   0.499804271
   0.249893056   0.750042834   0.000068499
   0.249893056   0.750042834   0.499931501
   0.750042834   0.249893056   0.000068499
   0.750042834   0.249893056   0.499931501
   0.750117924   0.750117924   0.999985437
   0.750117924   0.750117924   0.500014563
   0.249927958   0.249927958   0.250000000
   0.250072797   0.250072797   0.750000000
   0.250103605   0.750154874   0.250000000
   0.250007280   0.749932975   0.750000000
   0.750154874   0.250103605   0.250000000
   0.749932975   0.250007280   0.750000000
   0.749925263   0.749925263   0.250000000
   0.749999382   0.749999382   0.750000000
   0.250227478   0.999984897   0.000025810
   0.250227478   0.999984897   0.499974190
   0.250004338   0.499962831   0.999817719
   0.250004338   0.499962831   0.500182281
   0.749793456   0.999988115   0.999998417
   0.749793456   0.999988115   0.500001583
   0.750020854   0.499996553   0.000063425
   0.750020854   0.499996553   0.499936575
   0.999984897   0.250227478   0.000025810
   0.999984897   0.250227478   0.499974190
   0.999988115   0.749793456   0.999998417
   0.999988115   0.749793456   0.500001583
   0.499962831   0.250004338   0.999817719
   0.499962831   0.250004338   0.500182281
   0.499996553   0.750020854   0.000063425
   0.499996553   0.750020854   0.499936575
   0.000050199   0.000050199   0.250000000
   0.000009185   0.000009185   0.750000000
   0.999781250   0.499968941   0.250000000
   0.000059263   0.499994891   0.750000000
   0.499968941   0.999781250   0.250000000
   0.499994891   0.000059263   0.750000000
   0.500141362   0.500141362   0.250000000
   0.499928151   0.499928151   0.750000000
Mg28Ni4O32
   1.00000000
   8.442131639   0.000011549  -0.000000000
   0.000011549   8.442131639  -0.000000000
  -0.000000000  -0.000000000   8.442207864
  Ni  Mg  O
  4  28  32
Direct configuration=     2
   0.999762766   0.999762766   0.999795232
   0.999762766   0.999762766   0.500204768
   0.499587140   0.250580687   0.250000000
   0.250580687   0.499587140   0.250000000
   0.000520798   0.499921082   0.000566257
   0.000520798   0.499921082   0.499433743
   0.499921082   0.000520798   0.000566257
   0.499921082   0.000520798   0.499433743
   0.499614277   0.499614277   0.000851615
   0.499614277   0.499614277   0.499148385
   0.000472824   0.248973616   0.250000000
   0.999887308   0.248892635   0.750000000
   0.000469401   0.750778282   0.250000000
   0.999955945   0.751059966   0.750000000
   0.500026974   0.249855658   0.750000000
   0.499438392   0.749732227   0.250000000
   0.500098108   0.750205878   0.750000000
   0.248973616   0.000472824   0.250000000
   0.248892635   0.999887308   0.750000000
   0.249855658   0.500026974   0.750000000
   0.750778282   0.000469401   0.250000000
   0.751059966   0.999955945   0.750000000
   0.749732227   0.499438392   0.250000000
   0.750205878   0.500098108   0.750000000
   0.249817946   0.249817946   0.001024985
   0.249817946   0.249817946   0.498975015
   0.249450924   0.750243513   0.000368602
   0.249450924   0.750243513   0.499631398
   0.750243513   0.249450924   0.000368602
   0.750243513   0.249450924   0.499631398
   0.750612757   0.750612757   0.999977691
   0.750612757   0.750612757   0.500022309
   0.249611387   0.249611387   0.250000000
   0.250329637   0.250329637   0.750000000
   0.250503319   0.750832140   0.250000000
   0.249986349   0.749692543   0.750000000
   0.750832140   0.250503319   0.250000000
   0.749692543   0.249986349   0.750000000
   0.749654082   0.749654082   0.250000000
   0.750049902   0.750049902   0.750000000
   0.251194977   0.999930605   0.000154215
   0.251194977   0.999930605   0.499845785
   0.250052196   0.499787628   0.999089108
   0.250052196   0.499787628   0.500910892
   0.748906243   0.999955178   0.000003812
   0.748906243   0.999955178   0.499996188
   0.750081919   0.499967333   0.000340450
   0.750081919   0.499967333   0.499659550
   0.999930605   0.251194977   0.000154215
   0.999930605   0.251194977   0.499845785
   0.999955178   0.748906243   0.000003812
   0.999955178   0.748906243   0.499996188
   0.499787628   0.250052196   0.999089108
   0.499787628   0.250052196   0.500910892
   0.499967333   0.750081919   0.000340450
   0.499967333   0.750081919   0.499659550
   0.000274546   0.000274546   0.250000000
   0.000040152   0.000040152   0.750000000
   0.998886849   0.499837987   0.250000000
   0.000305276   0.499983321   0.750000000
   0.499837987   0.998886849   0.250000000
   0.499983321   0.000305276   0.750000000
   0.500723019   0.500723019   0.250000000
   0.499634163   0.499634163   0.750000000
Mg28Ni4O32
   1.00000000
   8.442655427   0.000014825  -0.000000000
   0.000014825   8.442655427  -0.000000000
  -0.000000000  -0.000000000   8.442749873
  Ni  Mg  O
  4  28  32
Direct configuration=     3
   0.999739276   0.999739276   0.999786565
   0.999739276   0.999739276   0.500213435
   0.499557295   0.250616108   0.250000000
   0.250616108   0.499557295   0.250000000
   0.000567991   0.499891258   0.000640615
   0.000567991   0.499891258   0.499359385
   0.499891258   0.000567991   0.000640615
   0.499891258   0.000567991   0.499359385
   0.499587748   0.499587748   0.000905183
   0.499587748   0.499587748   0.499094817
   0.000498576   0.248887829   0.250000000
   0.999902137   0.248841100   0.750000000
   0.000493615   0.750829029   0.250000000
   0.999970513   0.751100932   0.750000000
   0.499997868   0.249829030   0.750000000
   0.499399964   0.749754458   0.250000000
   0.500092066   0.750245543   0.750000000
   0.248887829   0.000498576   0.250000000
   0.248841100   0.999902137   0.750000000
   0.249829030   0.499997868   0.750000000
   0.750829029   0.000493615   0.250000000
   0.751100932   0.999970513   0.750000000
   0.749754458   0.499399964   0.250000000
   0.750245543   0.500092066   0.750000000
   0.249795950   0.249795950   0.001091622
   0.249795950   0.249795950   0.498908378
   0.249425418   0.750276476   0.000400832
   0.249425418   0.750276476   0.499599168
   0.750276476   0.249425418   0.000400832
   0.750276476   0.249425418   0.499599168
   0.750647413   0.750647413   0.000024100
   0.750647413   0.750647413   0.499975900
   0.249576555   0.249576555   0.250000000
   0.250301775   0.250301775   0.750000000
   0.250496951   0.750906455   0.250000000
   0.249938823   0.749713742   0.750000000
   0.750906455   0.250496951   0.250000000
   0.749713742   0.249938823   0.750000000
   0.749674654   0.749674654   0.250000000
   0.750101357   0.750101357   0.750000000
   0.251274007   0.999936361   0.000182184
   0.251274007   0.999936361   0.499817816
   0.250082111   0.499757108   0.999072398
   0.250082111   0.499757108   0.500927602
   0.748825356   0.999969093   0.000018070
   0.748825356   0.999969093   0.499981930
   0.750063385   0.499951310   0.000370757
   0.750063385   0.499951310   0.499629243
   0.999936361   0.251274007   0.000182184
   0.999936361   0.251274007   0.499817816
   0.999969093   0.748825356   0.000018070
   0.999969093   0.748825356   0.499981930
   0.499757108   0.250082111   0.999072398
   0.499757108   0.250082111   0.500927602
   0.499951310   0.750063385   0.000370757
   0.499951310   0.750063385   0.499629243
   0.000300995   0.000300995   0.250000000
   0.000036260   0.000036260   0.750000000
   0.998845694   0.499827805   0.250000000
   0.000320854   0.499988655   0.750000000
   0.499827805   0.998845694   0.250000000
   0.499988655   0.000320854   0.750000000
   0.500752896   0.500752896   0.250000000
   0.499619947   0.499619947   0.750000000
Mg28Ni4O32
   1.00000000
   8.450490808   0.000064889  -0.000000000
   0.000064889   8.450490808  -0.000000000
  -0.000000000  -0.000000000   8.450855728
  Ni  Mg  O
  4  28  32
Direct configuration=     4
   0.999468236   0.999468236   0.999738793
   0.999468236   0.999468236   0.500261207
   0.499280671   0.250914437   0.250000000
   0.250914437   0.499280671   0.250000000
   0.001079288   0.499457310   0.001562036
   0.001079288   0.499457310   0.498437964
   0.499457310   0.001079288   0.001562036
   0.499457310   0.001079288   0.498437964
   0.499356761   0.499356761   0.001341416
   0.499356761   0.499356761   0.498658584
   0.000681419   0.248009133   0.250000000
   0.000183369   0.248552620   0.750000000
   0.000671370   0.751261190   0.250000000
   0.000214673   0.751228310   0.750000000
   0.499531151   0.249476789   0.750000000
   0.499050368   0.750233189   0.250000000
   0.499962253   0.750781660   0.750000000
   0.248009133   0.000681419   0.250000000
   0.248552620   0.000183369   0.750000000
   0.249476789   0.499531151   0.750000000
   0.751261190   0.000671370   0.250000000
   0.751228310   0.000214673   0.750000000
   0.750233189   0.499050368   0.250000000
   0.750781660   0.499962253   0.750000000
   0.249528162   0.249528162   0.001671419
   0.249528162   0.249528162   0.498328581
   0.249284182   0.750679293   0.000733507
   0.249284182   0.750679293   0.499266493
   0.750679293   0.249284182   0.000733507
   0.750679293   0.249284182   0.499266493
   0.750900433   0.750900433   0.000756064
   0.750900433   0.750900433   0.499243936
   0.249205376   0.249205376   0.250000000
   0.249693565   0.249693565   0.750000000
   0.250148421   0.751695140   0.250000000
   0.249199278   0.750199546   0.750000000
   0.751695140   0.250148421   0.250000000
   0.750199546   0.249199278   0.750000000
   0.750175405   0.750175405   0.250000000
   0.750889320   0.750889320   0.750000000
   0.251937318   0.000069757   0.000557496
   0.251937318   0.000069757   0.499442504
   0.250527188   0.499368384   0.999254863
   0.250527188   0.499368384   0.500745137
   0.748070537   0.000215472   0.000267137
   0.748070537   0.000215472   0.499732863
   0.749744744   0.499709764   0.000699989
   0.749744744   0.499709764   0.499300011
   0.000069757   0.251937318   0.000557496
   0.000069757   0.251937318   0.499442504
   0.000215472   0.748070537   0.000267137
   0.000215472   0.748070537   0.499732863
   0.499368384   0.250527188   0.999254863
   0.499368384   0.250527188   0.500745137
   0.499709764   0.749744744   0.000699989
   0.499709764   0.749744744   0.499300011
   0.000581952   0.000581952   0.250000000
   0.999964079   0.999964079   0.750000000
   0.998742367   0.499738084   0.250000000
   0.000434825   0.500056941   0.750000000
   0.499738084   0.998742367   0.250000000
   0.500056941   0.000434825   0.750000000
   0.500886270   0.500886270   0.250000000
   0.499563170   0.499563170   0.750000000
Mg28Ni4O32
   1.00000000
   8.456339036   0.000103138  -0.000000000
   0.000103138   8.456339036  -0.000000000
  -0.000000000  -0.000000000   8.456903234
  Ni  Mg  O
  4  28  32
Direct configuration=     5
   0.999324415   0.999324415   0.999745060
   0.999324415   0.999324415   0.500254940
   0.499198245   0.250989869   0.250000000
   0.250989869   0.499198245   0.250000000
   0.001314128   0.499185703   0.002064555
   0.001314128   0.499185703   0.497935445
   0.499185703   0.001314128   0.002064555
   0.499185703   0.001314128   0.497935445
   0.499311149   0.499311149   0.001404674
   0.499311149   0.499311149   0.498595326
   0.000683797   0.247664037   0.250000000
   0.000389359   0.248642987   0.750000000
   0.000700463   0.751350114   0.250000000
   0.000378247   0.751010100   0.750000000
   0.499217341   0.249277446   0.750000000
   0.498942967   0.750625607   0.250000000
   0.499868565   0.751103233   0.750000000
   0.247664037   0.000683797   0.250000000
   0.248642987   0.000389359   0.750000000
   0.249277446   0.499217341   0.750000000
   0.751350114   0.000700463   0.250000000
   0.751010100   0.000378247   0.750000000
   0.750625607   0.498942967   0.250000000
   0.751103233   0.499868565   0.750000000
   0.249382526   0.249382526   0.001820282
   0.249382526   0.249382526   0.498179718
   0.249333559   0.750884780   0.000859847
   0.249333559   0.750884780   0.499140153
   0.750884780   0.249333559   0.000859847
   0.750884780   0.249333559   0.499140153
   0.750906283   0.750906283   0.001236628
   0.750906283   0.750906283   0.498763372
   0.249047106   0.249047106   0.250000000
   0.249182549   0.249182549   0.750000000
   0.249772305   0.752027712   0.250000000
   0.248716551   0.750614171   0.750000000
   0.752027712   0.249772305   0.250000000
   0.750614171   0.248716551   0.750000000
   0.750622012   0.750622012   0.250000000
   0.751403951   0.751403951   0.750000000
   0.252039761   0.000192828   0.000781986
   0.252039761   0.000192828   0.499218014
   0.250807157   0.499148627   0.999638582
   0.250807157   0.499148627   0.500361418
   0.747851960   0.000401208   0.000477122
   0.747851960   0.000401208   0.499522878
   0.749533447   0.499548977   0.000854391
   0.749533447   0.499548977   0.499145609
   0.000192828   0.252039761   0.000781986
   0.000192828   0.252039761   0.499218014
   0.000401208   0.747851960   0.000477122
   0.000401208   0.747851960   0.499522878
   0.499148627   0.250807157   0.999638582
   0.499148627   0.250807157   0.500361418
   0.499548977   0.749533447   0.000854391
   0.499548977   0.749533447   0.499145609
   0.000686340   0.000686340   0.250000000
   0.999917521   0.999917521   0.750000000
   0.998996859   0.499708430   0.250000000
   0.000456207   0.500065561   0.750000000
   0.499708430   0.998996859   0.250000000
   0.500065561   0.000456207   0.750000000
   0.500797985   0.500797985   0.250000000
   0.499609345   0.499609345   0.750000000
Mg28Ni4O32
   1.00000000
   8.463275588   0.000149458  -0.000000000
   0.000149458   8.463275588  -0.000000000
  -0.000000000  -0.000000000   8.464072706
  Ni  Mg  O
  4  28  32
Direct configuration=     6
   0.999206207   0.999206207   0.999763218
   0.999206207   0.999206207   0.500236782
   0.499204648   0.250987116   0.250000000
   0.250987116   0.499204648   0.250000000
   0.001461248   0.498969524   0.002433840
   0.001461248   0.498969524   0.497566160
   0.498969524   0.001461248   0.002433840
   0.498969524   0.001461248   0.497566160
   0.499369426   0.499369426   0.001269703
   0.499369426   0.499369426   0.498730297
   0.000596996   0.247536565   0.250000000
   0.000560449   0.248932931   0.750000000
   0.000690190   0.751268798   0.250000000
   0.000503144   0.750556930   0.750000000
   0.498955677   0.249140270   0.750000000
   0.498931082   0.751014648   0.250000000
   0.499802059   0.751362421   0.750000000
   0.247536565   0.000596996   0.250000000
   0.248932931   0.000560449   0.750000000
   0.249140270   0.498955677   0.750000000
   0.751268798   0.000690190   0.250000000
   0.750556930   0.000503144   0.750000000
   0.751014648   0.498931082   0.250000000
   0.751362421   0.499802059   0.750000000
   0.249270342   0.249270342   0.001787404
   0.249270342   0.249270342   0.498212596
   0.249489486   0.751006315   0.000889872
   0.249489486   0.751006315   0.499110128
   0.751006315   0.249489486   0.000889872
   0.751006315   0.249489486   0.499110128
   0.750777832   0.750777832   0.001618941
   0.750777832   0.750777832   0.498381059
   0.248973886   0.248973886   0.250000000
   0.248661238   0.248661238   0.750000000
   0.249340594   0.752173761   0.250000000
   0.248337991   0.751038431   0.750000000
   0.752173761   0.249340594   0.250000000
   0.751038431   0.248337991   0.750000000
   0.751103093   0.751103093   0.250000000
   0.751821306   0.751821306   0.750000000
   0.251815528   0.000336624   0.000963287
   0.251815528   0.000336624   0.499036713
   0.251021066   0.498982064   0.000192464
   0.251021066   0.498982064   0.499807536
   0.747898327   0.000581599   0.000731431
   0.747898327   0.000581599   0.499268569
   0.749389352   0.499408758   0.000955408
   0.749389352   0.499408758   0.499044592
   0.000336624   0.251815528   0.000963287
   0.000336624   0.251815528   0.499036713
   0.000581599   0.747898327   0.000731431
   0.000581599   0.747898327   0.499268569
   0.498982064   0.251021066   0.000192464
   0.498982064   0.251021066   0.499807536
   0.499408758   0.749389352   0.000955408
   0.499408758   0.749389352   0.499044592
   0.000692446   0.000692446   0.250000000
   0.999887808   0.999887808   0.750000000
   0.999507034   0.499690939   0.250000000
   0.000460708   0.499997882   0.750000000
   0.499690939   0.999507034   0.250000000
   0.499997882   0.000460708   0.750000000
   0.500598280   0.500598280   0.250000000
   0.499703284   0.499703284   0.750000000
Mg28Ni4O32
   1.00000000
   8.469588521   0.000192498  -0.000000000
   0.000192498   8.469588521  -0.000000000
  -0.000000000  -0.000000000   8.470594651
  Ni  Mg  O
  4  28  32
Direct configuration=     7
   0.999138166   0.999138166   0.999758784
   0.999138166   0.999138166   0.500241216
   0.499271588   0.250969300   0.250000000
   0.250969300   0.499271588   0.250000000
   0.001504296   0.498909051   0.002542459
   0.001504296   0.498909051   0.497457541
   0.498909051   0.001504296   0.002542459
   0.498909051   0.001504296   0.497457541
   0.499491979   0.499491979   0.001041414
   0.499491979   0.499491979   0.498958586
   0.000496283   0.247610402   0.250000000
   0.000588839   0.249205916   0.750000000
   0.000701108   0.751099591   0.250000000
   0.000514260   0.750126023   0.750000000
   0.498881822   0.249133131   0.750000000
   0.498977375   0.751191472   0.250000000
   0.499814286   0.751454040   0.750000000
   0.247610402   0.000496283   0.250000000
   0.249205916   0.000588839   0.750000000
   0.249133131   0.498881822   0.750000000
   0.751099591   0.000701108   0.250000000
   0.750126023   0.000514260   0.750000000
   0.751191472   0.498977375   0.250000000
   0.751454040   0.499814286   0.750000000
   0.249223737   0.249223737   0.001667059
   0.249223737   0.249223737   0.498332941
   0.249645068   0.750993194   0.000826782
   0.249645068   0.750993194   0.499173218
   0.750993194   0.249645068   0.000826782
   0.750993194   0.249645068   0.499173218
   0.750607683   0.750607683   0.001698673
   0.750607683   0.750607683   0.498301327
   0.248994915   0.248994915   0.250000000
   0.248412937   0.248412937   0.750000000
   0.249106811   0.752114286   0.250000000
   0.248277407   0.751235839   0.750000000
   0.752114286   0.249106811   0.250000000
   0.751235839   0.248277407   0.750000000
   0.751362659   0.751362659   0.250000000
   0.751919190   0.751919190   0.750000000
   0.251396085   0.000431756   0.001027111
   0.251396085   0.000431756   0.498972889
   0.251056007   0.498935657   0.000607167
   0.251056007   0.498935657   0.499392833
   0.748136188   0.000667234   0.000930969
   0.748136188   0.000667234   0.499069031
   0.749425449   0.499357617   0.000985714
   0.749425449   0.499357617   0.499014286
   0.000431756   0.251396085   0.001027111
   0.000431756   0.251396085   0.498972889
   0.000667234   0.748136188   0.000930969
   0.000667234   0.748136188   0.499069031
   0.498935657   0.251056007   0.000607167
   0.498935657   0.251056007   0.499392833
   0.499357617   0.749425449   0.000985714
   0.499357617   0.749425449   0.499014286
   0.000596306   0.000596306   0.250000000
   0.999891071   0.999891071   0.750000000
   0.999995283   0.499666886   0.250000000
   0.000489874   0.499849239   0.750000000
   0.499666886   0.999995283   0.250000000
   0.499849239   0.000489874   0.750000000
   0.500442093   0.500442093   0.250000000
   0.499771433   0.499771433   0.750000000
Mg28Ni4O32
   1.00000000
   8.479144555   0.000258672  -0.000000000
   0.000258672   8.479144555  -0.000000000
  -0.000000000  -0.000000000   8.480465516
  Ni  Mg  O
  4  28  32
Direct configuration=     8
   0.999068476   0.999068476   0.999705562
   0.999068476   0.999068476   0.500294438
   0.499388955   0.251001761   0.250000000
   0.251001761   0.499388955   0.250000000
   0.001512724   0.498979783   0.002470280
   0.001512724   0.498979783   0.497529720
   0.498979783   0.001512724   0.002470280
   0.498979783   0.001512724   0.497529720
   0.499698562   0.499698562   0.000703357
   0.499698562   0.499698562   0.499296643
   0.000391165   0.247819570   0.250000000
   0.000459479   0.249445579   0.750000000
   0.000789581   0.750844450   0.250000000
   0.000404018   0.749647128   0.750000000
   0.498983121   0.249260469   0.750000000
   0.499056402   0.751181365   0.250000000
   0.499923572   0.751424797   0.750000000
   0.247819570   0.000391165   0.250000000
   0.249445579   0.000459479   0.750000000
   0.249260469   0.498983121   0.750000000
   0.750844450   0.000789581   0.250000000
   0.749647128   0.000404018   0.750000000
   0.751181365   0.499056402   0.250000000
   0.751424797   0.499923572   0.750000000
   0.249205630   0.249205630   0.001505074
   0.249205630   0.249205630   0.498494926
   0.249806946   0.750851401   0.000673272
   0.249806946   0.750851401   0.499326728
   0.750851401   0.249806946   0.000673272
   0.750851401   0.249806946   0.499326728
   0.750386206   0.750386206   0.001485194
   0.750386206   0.750386206   0.498514806
   0.249092066   0.249092066   0.250000000
   0.248417025   0.248417025   0.750000000
   0.249072099   0.751881956   0.250000000
   0.248555577   0.751209441   0.750000000
   0.751881956   0.249072099   0.250000000
   0.751209441   0.248555577   0.750000000
   0.751430556   0.751430556   0.250000000
   0.751692289   0.751692289   0.750000000
   0.250692596   0.000495624   0.001000875
   0.250692596   0.000495624   0.498999125
   0.250914000   0.498990119   0.000940683
   0.250914000   0.498990119   0.499059317
   0.748571730   0.000674898   0.001137324
   0.748571730   0.000674898   0.498862676
   0.749702643   0.499387615   0.000979545
   0.749702643   0.499387615   0.499020455
   0.000495624   0.250692596   0.001000875
   0.000495624   0.250692596   0.498999125
   0.000674898   0.748571730   0.001137324
   0.000674898   0.748571730   0.498862676
   0.498990119   0.250914000   0.000940683
   0.498990119   0.250914000   0.499059317
   0.499387615   0.749702643   0.000979545
   0.499387615   0.749702643   0.499020455
   0.000370094   0.000370094   0.250000000
   0.999916707   0.999916707   0.750000000
   0.000556984   0.499595934   0.250000000
   0.000597687   0.499549366   0.750000000
   0.499595934   0.000556984   0.250000000
   0.499549366   0.000597687   0.750000000
   0.500356092   0.500356092   0.250000000
   0.499806812   0.499806812   0.750000000
Mg28Ni4O32
   1.00000000
   8.489218452   0.000329749  -0.000000000
   0.000329749   8.489218452  -0.000000000
  -0.000000000  -0.000000000   8.490872749
  Ni  Mg  O
  4  28  32
Direct configuration=     9
   0.999024650   0.999024650   0.999603732
   0.999024650   0.999024650   0.500396268
   0.499485168   0.251134396   0.250000000
   0.251134396   0.499485168   0.250000000
   0.001495707   0.499191676   0.002196079
   0.001495707   0.499191676   0.497803921
   0.499191676   0.001495707   0.002196079
   0.499191676   0.001495707   0.497803921
   0.499885743   0.499885743   0.000456044
   0.499885743   0.499885743   0.499543956
   0.000371732   0.248039941   0.250000000
   0.000172008   0.249409291   0.750000000
   0.000956358   0.750659563   0.250000000
   0.000185214   0.749450265   0.750000000
   0.499279907   0.249516293   0.750000000
   0.499122541   0.750883862   0.250000000
   0.500105013   0.751247502   0.750000000
   0.248039941   0.000371732   0.250000000
   0.249409291   0.000172008   0.750000000
   0.249516293   0.499279907   0.750000000
   0.750659563   0.000956358   0.250000000
   0.749450265   0.000185214   0.750000000
   0.750883862   0.499122541   0.250000000
   0.751247502   0.500105013   0.750000000
   0.249227321   0.249227321   0.001423978
   0.249227321   0.249227321   0.498576022
   0.249848046   0.750618257   0.000498703
   0.249848046   0.750618257   0.499501297
   0.750618257   0.249848046   0.000498703
   0.750618257   0.249848046   0.499501297
   0.750262734   0.750262734   0.000979138
   0.750262734   0.750262734   0.499020862
   0.249232294   0.249232294   0.250000000
   0.248844554   0.248844554   0.750000000
   0.249422771   0.751562774   0.250000000
   0.249185633   0.750809978   0.750000000
   0.751562774   0.249422771   0.250000000
   0.750809978   0.249185633   0.750000000
   0.751118867   0.751118867   0.250000000
   0.751095830   0.751095830   0.750000000
   0.250044955   0.000451869   0.000855489
   0.250044955   0.000451869   0.499144511
   0.250601371   0.499167064   0.000884163
   0.250601371   0.499167064   0.499115837
   0.748973331   0.000550324   0.001192728
   0.748973331   0.000550324   0.498807272
   0.750193390   0.499530316   0.000926091
   0.750193390   0.499530316   0.499073909
   0.000451869   0.250044955   0.000855489
   0.000451869   0.250044955   0.499144511
   0.000550324   0.748973331   0.001192728
   0.000550324   0.748973331   0.498807272
   0.499167064   0.250601371   0.000884163
   0.499167064   0.250601371   0.499115837
   0.499530316   0.750193390   0.000926091
   0.499530316   0.750193390   0.499073909
   0.000095347   0.000095347   0.250000000
   0.999931065   0.999931065   0.750000000
   0.000829815   0.499475615   0.250000000
   0.000777932   0.499220134   0.750000000
   0.499475615   0.000829815   0.250000000
   0.499220134   0.000777932   0.750000000
   0.500482768   0.500482768   0.250000000
   0.499762060   0.499762060   0.750000000
Mg28Ni4O32
   1.00000000
   8.495554976   0.000376429  -0.000000000
   0.000376429   8.495554976  -0.000000000
  -0.000000000  -0.000000000   8.497423689
  Ni  Mg  O
  4  28  32
Direct configuration=     10
   0.999033756   0.999033756   0.999517533
   0.999033756   0.999033756   0.500482467
   0.499501684   0.251300294   0.250000000
   0.251300294   0.499501684   0.250000000
   0.001458915   0.499417129   0.001858576
   0.001458915   0.499417129   0.498141424
   0.499417129   0.001458915   0.001858576
   0.499417129   0.001458915   0.498141424
   0.499947324   0.499947324   0.000447685
   0.499947324   0.499947324   0.499552315
   0.000450107   0.248142301   0.250000000
   0.999897758   0.249093577   0.750000000
   0.001087669   0.750651604   0.250000000
   0.999991565   0.749663589   0.750000000
   0.499594399   0.249768988   0.750000000
   0.499161122   0.750470180   0.250000000
   0.500236841   0.751024890   0.750000000
   0.248142301   0.000450107   0.250000000
   0.249093577   0.999897758   0.750000000
   0.249768988   0.499594399   0.750000000
   0.750651604   0.001087669   0.250000000
   0.749663589   0.999991565   0.750000000
   0.750470180   0.499161122   0.250000000
   0.751024890   0.500236841   0.750000000
   0.249276768   0.249276768   0.001450223
   0.249276768   0.249276768   0.498549777
   0.249742748   0.750430027   0.000404049
   0.249742748   0.750430027   0.499595951
   0.750430027   0.249742748   0.000404049
   0.750430027   0.249742748   0.499595951
   0.750319234   0.750319234   0.000489684
   0.750319234   0.750319234   0.499510316
   0.249348657   0.249348657   0.250000000
   0.249488444   0.249488444   0.750000000
   0.250004578   0.751319284   0.250000000
   0.249820648   0.750222832   0.750000000
   0.751319284   0.250004578   0.250000000
   0.750222832   0.249820648   0.750000000
   0.750564237   0.750564237   0.250000000
   0.750446482   0.750446482   0.750000000
   0.249822546   0.000301322   0.000659409
   0.249822546   0.000301322   0.499340591
   0.250306276   0.499384641   0.000443477
   0.250306276   0.499384641   0.499556523
   0.749098811   0.000352979   0.001013939
   0.749098811   0.000352979   0.498986061
   0.750627623   0.499717547   0.000834763
   0.750627623   0.499717547   0.499165237
   0.000301322   0.249822546   0.000659409
   0.000301322   0.249822546   0.499340591
   0.000352979   0.749098811   0.001013939
   0.000352979   0.749098811   0.498986061
   0.499384641   0.250306276   0.000443477
   0.499384641   0.250306276   0.499556523
   0.499717547   0.750627623   0.000834763
   0.499717547   0.750627623   0.499165237
   0.999923558   0.999923558   0.250000000
   0.999887388   0.999887388   0.750000000
   0.000651302   0.499364184   0.250000000
   0.000926594   0.499076906   0.750000000
   0.499364184   0.000651302   0.250000000
   0.499076906   0.000926594   0.750000000
   0.500766481   0.500766481   0.250000000
   0.499676565   0.499676565   0.750000000
Mg28Ni4O32
   1.00000000
   8.496906273   0.000389037  -0.000000000
   0.000389037   8.496906273  -0.000000000
  -0.000000000  -0.000000000   8.498828297
  Ni  Mg  O
  4  28  32
Direct configuration=     11
   0.999081765   0.999081765   0.999508209
   0.999081765   0.999081765   0.500491791
   0.499469311   0.251367973   0.250000000
   0.251367973   0.499469311   0.250000000