Mg28Ni4O32
   1.00000000
   8.440344971   0.000000000   0.000000000
   0.000000000   8.440349958   0.000000000
   0.000000000   0.000000000   8.440347445
  Ni  Mg  O
  4  28  32
Direct configuration=     1
   0.000000000   0.000072306   0.000084976
   0.000000000   0.000072306   0.499915024
   0.000000000   0.249850573   0.250000000
   0.500000000   0.749934361   0.750000000
   0.000000000   0.499937324   0.000052745
   0.000000000   0.499937324   0.499947255
   0.500000000   0.999862230   0.999839858
   0.500000000   0.999862230   0.500160142
   0.500000000   0.500119763   0.999892351
   0.500000000   0.500119763   0.500107649
   0.000000000   0.249818321   0.750000000
   0.000000000   0.750186192   0.250000000
   0.000000000   0.750252152   0.750000000
   0.500000000   0.250006044   0.250000000
   0.500000000   0.249999266   0.750000000
   0.500000000   0.749971001   0.250000000
   0.249708298   0.000073395   0.250000000
   0.249927477   0.999878657   0.750000000
   0.249959206   0.499939895   0.250000000
   0.250076519   0.500132622   0.750000000
   0.750291702   0.000073395   0.250000000
   0.750072523   0.999878657   0.750000000
   0.750040794   0.499939895   0.250000000
   0.749923481   0.500132622   0.750000000
   0.249828265   0.249912038   0.000067856
   0.249828265   0.249912038   0.499932144
   0.250008442   0.750074929   0.999869837
   0.250008442   0.750074929   0.500130163
   0.750171735   0.249912038   0.000067856
   0.750171735   0.249912038   0.499932144
   0.749991558   0.750074929   0.999869837
   0.749991558   0.750074929   0.500130163
   0.250106940   0.249921068   0.250000000
   0.249990416   0.250001854   0.750000000
   0.249992392   0.750000668   0.250000000
   0.249710805   0.749968913   0.750000000
   0.749893060   0.249921068   0.250000000
   0.750009584   0.250001854   0.750000000
   0.750007608   0.750000668   0.250000000
   0.750289195   0.749968913   0.750000000
   0.250130515   0.000056623   0.000053340
   0.250130515   0.000056623   0.499946660
   0.249939987   0.499989774   0.000015706
   0.249939987   0.499989774   0.499984294
   0.749869485   0.000056623   0.000053340
   0.749869485   0.000056623   0.499946660
   0.750060013   0.499989774   0.000015706
   0.750060013   0.499989774   0.499984294
   0.000000000   0.250063986   0.999904295
   0.000000000   0.250063986   0.500095705
   0.000000000   0.749861693   0.000007901
   0.000000000   0.749861693   0.499992099
   0.500000000   0.249932163   0.000045123
   0.500000000   0.249932163   0.499954877
   0.500000000   0.750067970   0.000303359
   0.500000000   0.750067970   0.499696641
   0.000000000   0.999994851   0.250000000
   0.000000000   0.000007073   0.750000000
   0.000000000   0.500140271   0.250000000
   0.000000000   0.499979743   0.750000000
   0.500000000   0.000050355   0.250000000
   0.500000000   0.000320271   0.750000000
   0.500000000   0.499967489   0.250000000
   0.500000000   0.499719565   0.750000000
Mg28Ni4O32
   1.00000000
   8.442159479   0.000000000  -0.000000000
   0.000000000   8.442191558   0.000000000
  -0.000000000   0.000000000   8.442176428
  Ni  Mg  O
  4  28  32
Direct configuration=     2
   0.000000000   0.000369041   0.000452753
   0.000000000   0.000369041   0.499547247
   0.000000000   0.249231066   0.250000000
   0.500000000   0.749659151   0.750000000
   0.000000000   0.499694635   0.000250314
   0.000000000   0.499694635   0.499749686
   0.500000000   0.999298516   0.999188852
   0.500000000   0.999298516   0.500811148
   0.500000000   0.500594626   0.999456318
   0.500000000   0.500594626   0.500543682
   0.000000000   0.249046492   0.750000000
   0.000000000   0.750971551   0.250000000
   0.000000000   0.751346592   0.750000000
   0.500000000   0.249950608   0.250000000
   0.500000000   0.249964975   0.750000000
   0.500000000   0.749911656   0.250000000
   0.248490124   0.000378883   0.250000000
   0.249607898   0.999396581   0.750000000
   0.249776121   0.499704329   0.250000000
   0.250318929   0.500671523   0.750000000
   0.751509876   0.000378883   0.250000000
   0.750392102   0.999396581   0.750000000
   0.750223879   0.499704329   0.250000000
   0.749681071   0.500671523   0.750000000
   0.249105884   0.249513452   0.000345129
   0.249105884   0.249513452   0.499654871
   0.250001923   0.750407484   0.999345634
   0.250001923   0.750407484   0.500654366
   0.750894116   0.249513452   0.000345129
   0.750894116   0.249513452   0.499654871
   0.749998077   0.750407484   0.999345634
   0.749998077   0.750407484   0.500654366
   0.250470636   0.249551917   0.250000000
   0.249893238   0.249976591   0.750000000
   0.249902029   0.750037593   0.250000000
   0.248453573   0.749870423   0.750000000
   0.749529364   0.249551917   0.250000000
   0.750106762   0.249976591   0.750000000
   0.750097971   0.750037593   0.250000000
   0.751546427   0.749870423   0.750000000
   0.250656284   0.000287279   0.000264388
   0.250656284   0.000287279   0.499735612
   0.249696196   0.499952717   0.000077771
   0.249696196   0.499952717   0.499922229
   0.749343716   0.000287279   0.000264388
   0.749343716   0.000287279   0.499735612
   0.750303804   0.499952717   0.000077771
   0.750303804   0.499952717   0.499922229
   0.000000000   0.250294430   0.999525872
   0.000000000   0.250294430   0.500474128
   0.000000000   0.749326138   0.000050087
   0.000000000   0.749326138   0.499949913
   0.500000000   0.249658951   0.000251523
   0.500000000   0.249658951   0.499748477
   0.500000000   0.750350417   0.001564075
   0.500000000   0.750350417   0.498435925
   0.000000000   0.000025968   0.250000000
   0.000000000   0.000044610   0.750000000
   0.000000000   0.500691211   0.250000000
   0.000000000   0.499880259   0.750000000
   0.500000000   0.000273553   0.250000000
   0.500000000   0.001648881   0.750000000
   0.500000000   0.499808568   0.250000000
   0.500000000   0.498551948   0.750000000
Mg28Ni4O32
   1.00000000
   8.442700220   0.000000000  -0.000000000
   0.000000000   8.442741198   0.000000000
  -0.000000000   0.000000000   8.442722436
  Ni  Mg  O
  4  28  32
Direct configuration=     3
   0.000000000   0.000391121   0.000494400
   0.000000000   0.000391121   0.499505600
   0.000000000   0.249183618   0.250000000
   0.500000000   0.749631442   0.750000000
   0.000000000   0.499691637   0.000247239
   0.000000000   0.499691637   0.499752761
   0.500000000   0.999262821   0.999149187
   0.500000000   0.999262821   0.500850813
   0.500000000   0.500611112   0.999433835
   0.500000000   0.500611112   0.500566165
   0.000000000   0.248967988   0.750000000
   0.000000000   0.751041419   0.250000000
   0.000000000   0.751478715   0.750000000
   0.500000000   0.249873446   0.250000000
   0.500000000   0.249935470   0.750000000
   0.500000000   0.749961665   0.250000000
   0.248387996   0.000402621   0.250000000
   0.249565966   0.999379446   0.750000000
   0.249750131   0.499697673   0.250000000
   0.250268601   0.500701147   0.750000000
   0.751612004   0.000402621   0.250000000
   0.750434034   0.999379446   0.750000000
   0.750249869   0.499697673   0.250000000
   0.749731399   0.500701147   0.750000000
   0.249040619   0.249452691   0.000362694
   0.249040619   0.249452691   0.499637306
   0.249962981   0.750453555   0.999320377
   0.249962981   0.750453555   0.500679623
   0.750959381   0.249452691   0.000362694
   0.750959381   0.249452691   0.499637306
   0.750037019   0.750453555   0.999320377
   0.750037019   0.750453555   0.500679623
   0.250424540   0.249485890   0.250000000
   0.249832647   0.249943722   0.750000000
   0.249839804   0.750074102   0.250000000
   0.248305707   0.749891976   0.750000000
   0.749575460   0.249485890   0.250000000
   0.750167353   0.249943722   0.750000000
   0.750160196   0.750074102   0.250000000
   0.751694293   0.749891976   0.750000000
   0.250681868   0.000299635   0.000271081
   0.250681868   0.000299635   0.499728919
   0.249680055   0.499954729   0.000079511
   0.249680055   0.499954729   0.499920489
   0.749318132   0.000299635   0.000271081
   0.749318132   0.000299635   0.499728919
   0.750319945   0.499954729   0.000079511
   0.750319945   0.499954729   0.499920489
   0.000000000   0.250279208   0.999513394
   0.000000000   0.250279208   0.500486606
   0.000000000   0.749321035   0.000062914
   0.000000000   0.749321035   0.499937086
   0.500000000   0.249642639   0.000284597
   0.500000000   0.249642639   0.499715403
   0.500000000   0.750372507   0.001661427
   0.500000000   0.750372507   0.498338573
   0.000000000   0.000076954   0.250000000
   0.000000000   0.000056681   0.750000000
   0.000000000   0.500707677   0.250000000
   0.000000000   0.499857906   0.750000000
   0.500000000   0.000302832   0.250000000
   0.500000000   0.001749677   0.750000000
   0.500000000   0.499774410   0.250000000
   0.500000000   0.498460349   0.750000000
Mg28Ni4O32
   1.00000000
   8.450463517   0.000000000  -0.000000000
   0.000000000   8.450633694   0.000000000
  -0.000000000   0.000000000   8.450563249
  Ni  Mg  O
  4  28  32
Direct configuration=     4
   0.000000000   0.000562529   0.000913351
   0.000000000   0.000562529   0.499086649
   0.000000000   0.248840369   0.250000000
   0.500000000   0.749358698   0.750000000
   0.000000000   0.499788216   0.000085831
   0.000000000   0.499788216   0.499914169
   0.500000000   0.999050768   0.998925021
   0.500000000   0.999050768   0.501074979
   0.500000000   0.500568221   0.999360344
   0.500000000   0.500568221   0.500639656
   0.000000000   0.248205082   0.750000000
   1.000000000   0.751642805   0.250000000
   1.000000000   0.752881555   0.750000000
   0.500000000   0.248716547   0.250000000
   0.500000000   0.249513892   0.750000000
   0.500000000   0.750767892   0.250000000
   0.247541608   0.000582653   0.250000000
   0.249105601   0.999409633   0.750000000
   0.249464345   0.499730232   0.250000000
   0.249335768   0.500824579   0.750000000
   0.752458392   0.000582653   0.250000000
   0.750894399   0.999409633   0.750000000
   0.750535655   0.499730232   0.250000000
   0.750664232   0.500824579   0.750000000
   0.248465463   0.248758802   0.000466489
   0.248465463   0.248758802   0.499533511
   0.249358962   0.750965957   0.999249954
   0.249358962   0.750965957   0.500750046
   0.751534537   0.248758802   0.000466489
   0.751534537   0.248758802   0.499533511
   0.750641038   0.750965957   0.999249954
   0.750641038   0.750965957   0.500750046
   0.249484725   0.248686708   0.250000000
   0.248953579   0.249444901   0.750000000
   0.248923544   0.750634135   0.250000000
   0.246791146   0.750290683   0.750000000
   0.750515275   0.248686708   0.250000000
   0.751046421   0.249444901   0.750000000
   0.751076456   0.750634135   0.250000000
   0.753208854   0.750290683   0.750000000
   0.250754283   0.000344918   0.000247138
   0.250754283   0.000344918   0.499752862
   0.249558828   0.500006893   0.000068905
   0.249558828   0.500006893   0.499931095
   0.749245717   0.000344918   0.000247138
   0.749245717   0.000344918   0.499752862
   0.750441172   0.500006893   0.000068905
   0.750441172   0.500006893   0.499931095
   0.000000000   0.249898300   0.999545987
   0.000000000   0.249898300   0.500454013
   1.000000000   0.749586324   0.000245623
   1.000000000   0.749586324   0.499754377
   0.500000000   0.249533629   0.000669797
   0.500000000   0.249533629   0.499330203
   0.500000000   0.750550471   0.002383685
   0.500000000   0.750550471   0.497616315
   0.000000000   0.000844584   0.250000000
   1.000000000   0.000230514   0.750000000
   0.000000000   0.500634656   0.250000000
   0.000000000   0.499576028   0.750000000
   0.500000000   0.000613022   0.250000000
   0.500000000   0.002476995   0.750000000
   0.500000000   0.499340862   0.250000000
   0.500000000   0.497766256   0.750000000
Mg28Ni4O32
   1.00000000
   8.456055738   0.000000000  -0.000000000
   0.000000000   8.456318831   0.000000000
  -0.000000000   0.000000000   8.456210697
  Ni  Mg  O
  4  28  32
Direct configuration=     5
   0.000000000   0.000597913   0.001071617
   0.000000000   0.000597913   0.498928383
   0.000000000   0.248841906   0.250000000
   0.500000000   0.749246087   0.750000000
   0.000000000   0.499924584   0.999924695
   0.000000000   0.499924584   0.500075305
   0.500000000   0.999087449   0.998976643
   0.500000000   0.999087449   0.501023357
   0.500000000   0.500366889   0.999469534
   0.500000000   0.500366889   0.500530466
   0.000000000   0.247917048   0.750000000
   1.000000000   0.751787347   0.250000000
   1.000000000   0.753507343   0.750000000
   0.500000000   0.247966033   0.250000000
   0.500000000   0.249268467   0.750000000
   0.500000000   0.751325203   0.250000000
   0.247361124   0.000599213   0.250000000
   0.248892686   0.999590755   0.750000000
   0.249339770   0.499816892   0.250000000
   0.248618526   0.500719596   0.750000000
   0.752638876   0.000599213   0.250000000
   0.751107314   0.999590755   0.750000000
   0.750660230   0.499816892   0.250000000
   0.751381474   0.500719596   0.750000000
   0.248307966   0.248430277   0.000446325
   0.248307966   0.248430277   0.499553675
   0.248946486   0.751203691   0.999376829
   0.248946486   0.751203691   0.500623171
   0.751692034   0.248430277   0.000446325
   0.751692034   0.248430277   0.499553675
   0.751053514   0.751203691   0.999376829
   0.751053514   0.751203691   0.500623171
   0.248728560   0.248270266   0.250000000
   0.248397798   0.249109701   0.750000000
   0.248327204   0.751026892   0.250000000
   0.246203826   0.750597916   0.750000000
   0.751271440   0.248270266   0.250000000
   0.751602202   0.249109701   0.750000000
   0.751672796   0.751026892   0.250000000
   0.753796174   0.750597916   0.750000000
   0.250623323   0.000290464   0.000163325
   0.250623323   0.000290464   0.499836675
   0.249522210   0.500051639   0.000042451
   0.249522210   0.500051639   0.499957549
   0.749376677   0.000290464   0.000163325
   0.749376677   0.000290464   0.499836675
   0.750477790   0.500051639   0.000042451
   0.750477790   0.500051639   0.499957549
   0.000000000   0.249558772   0.999683079
   0.000000000   0.249558772   0.500316921
   1.000000000   0.749974248   0.000371116
   1.000000000   0.749974248   0.499628884
   0.500000000   0.249510109   0.000858056
   0.500000000   0.249510109   0.499141944
   0.500000000   0.750589489   0.002424710
   0.500000000   0.750589489   0.497575290
   0.000000000   0.001342062   0.250000000
   1.000000000   0.000353202   0.750000000
   0.000000000   0.500416691   0.250000000
   0.000000000   0.499423808   0.750000000
   0.500000000   0.000731184   0.250000000
   0.500000000   0.002484701   0.750000000
   0.500000000   0.499098379   0.250000000
   0.500000000   0.497704886   0.750000000
Mg28Ni4O32
   1.00000000
   8.462300342   0.000000000  -0.000000000
   0.000000000   8.462664996   0.000000000
  -0.000000000   0.000000000   8.462512931
  Ni  Mg  O
  4  28  32
Direct configuration=     6
   0.000000000   0.000590898   0.001113017
   0.000000000   0.000590898   0.498886983
   0.000000000   0.249046844   0.250000000
   0.500000000   0.749183920   0.750000000
   0.000000000   0.500082144   0.999767070
   0.000000000   0.500082144   0.500232930
   0.500000000   0.999239174   0.999152841
   0.500000000   0.999239174   0.500847159
   0.500000000   0.500054556   0.999692452
   0.500000000   0.500054556   0.500307548
   0.000000000   0.247810739   0.750000000
   1.000000000   0.751718979   0.250000000
   1.000000000   0.753844374   0.750000000
   0.500000000   0.247371952   0.250000000
   0.500000000   0.249119034   0.750000000
   0.500000000   0.751797946   0.250000000
   0.247480676   0.000532543   0.250000000
   0.248779243   0.999858647   0.750000000
   0.249290896   0.499923660   0.250000000
   0.247943454   0.500483558   0.750000000
   0.752519324   0.000532543   0.250000000
   0.751220757   0.999858647   0.750000000
   0.750709104   0.499923660   0.250000000
   0.752056546   0.500483558   0.750000000
   0.248334069   0.248264055   0.000365503
   0.248334069   0.248264055   0.499634497
   0.248589266   0.751326407   0.999610906
   0.248589266   0.751326407   0.500389094
   0.751665931   0.248264055   0.000365503
   0.751665931   0.248264055   0.499634497
   0.751410734   0.751326407   0.999610906
   0.751410734   0.751326407   0.500389094
   0.248008463   0.248014804   0.250000000
   0.247970419   0.248825454   0.750000000
   0.247840401   0.751392406   0.250000000
   0.246052824   0.750887580   0.750000000
   0.751991537   0.248014804   0.250000000
   0.752029581   0.248825454   0.750000000
   0.752159599   0.751392406   0.250000000
   0.753947176   0.750887580   0.750000000
   0.250374228   0.000175379   0.000045995
   0.250374228   0.000175379   0.499954005
   0.249484709   0.500092415   0.000009148
   0.249484709   0.500092415   0.499990852
   0.749625772   0.000175379   0.000045995
   0.749625772   0.000175379   0.499954005
   0.750515291   0.500092415   0.000009148
   0.750515291   0.500092415   0.499990852
   0.000000000   0.249207278   0.999869325
   0.000000000   0.249207278   0.500130675
   1.000000000   0.750489883   0.000494372
   1.000000000   0.750489883   0.499505628
   0.500000000   0.249482447   0.000958553
   0.500000000   0.249482447   0.499041447
   0.500000000   0.750572576   0.002098610
   0.500000000   0.750572576   0.497901390
   0.000000000   0.001732598   0.250000000
   1.000000000   0.000480165   0.750000000
   1.000000000   0.500126280   0.250000000
   0.000000000   0.499331023   0.750000000
   0.500000000   0.000740016   0.250000000
   0.500000000   0.002085540   0.750000000
   0.500000000   0.498928488   0.250000000
   0.500000000   0.497973859   0.750000000
Mg28Ni4O32
   1.00000000
   8.467914175   0.000000000  -0.000000000
   0.000000000   8.468366337   0.000000000
  -0.000000000   0.000000000   8.468172159
  Ni  Mg  O
  4  28  32
Direct configuration=     7
   0.000000000   0.000591491   0.001055600
   0.000000000   0.000591491   0.498944400
   0.000000000   0.249331960   0.250000000
   0.500000000   0.749161967   0.750000000
   0.000000000   0.500165146   0.999711825
   0.000000000   0.500165146   0.500288175
   0.500000000   0.999377068   0.999304045
   0.500000000   0.999377068   0.500695955
   0.500000000   0.499799247   0.999901515
   0.500000000   0.499799247   0.500098485
   0.000000000   0.247842504   0.750000000
   1.000000000   0.751541536   0.250000000
   1.000000000   0.753876351   0.750000000
   0.500000000   0.247195495   0.250000000
   0.500000000   0.249142666   0.750000000
   0.500000000   0.751969852   0.250000000
   0.247727342   0.000438640   0.250000000
   0.248786152   0.000047835   0.750000000
   0.249324060   0.499973860   0.250000000
   0.247621115   0.500261468   0.750000000
   0.752272658   0.000438640   0.250000000
   0.751213848   0.000047835   0.750000000
   0.750675940   0.499973860   0.250000000
   0.752378885   0.500261468   0.750000000
   0.248459069   0.248300977   0.000286344
   0.248459069   0.248300977   0.499713656
   0.248439058   0.751312039   0.999801296
   0.248439058   0.751312039   0.500198704
   0.751540931   0.248300977   0.000286344
   0.751540931   0.248300977   0.499713656
   0.751560942   0.751312039   0.999801296
   0.751560942   0.751312039   0.500198704
   0.247680543   0.248006621   0.250000000
   0.247865110   0.248715854   0.750000000
   0.247674077   0.751584970   0.250000000
   0.246310925   0.751024570   0.750000000
   0.752319457   0.248006621   0.250000000
   0.752134890   0.248715854   0.750000000
   0.752325923   0.751584970   0.250000000
   0.753689075   0.751024570   0.750000000
   0.250155693   0.000068820   0.999967306
   0.250155693   0.000068820   0.500032694
   0.249412080   0.500103140   0.999993868
   0.249412080   0.500103140   0.500006132
   0.749844307   0.000068820   0.999967306
   0.749844307   0.000068820   0.500032694
   0.750587920   0.500103140   0.999993868
   0.750587920   0.500103140   0.500006132
   0.000000000   0.249015059   0.999978519
   0.000000000   0.249015059   0.500021481
   1.000000000   0.750888174   0.000574694
   1.000000000   0.750888174   0.499425306
   0.500000000   0.249407157   0.000940181
   0.500000000   0.249407157   0.499059819
   0.500000000   0.750532575   0.001635264
   0.500000000   0.750532575   0.498364736
   0.000000000   0.001843596   0.250000000
   0.000000000   0.000573505   0.750000000
   1.000000000   0.499954727   0.250000000
   1.000000000   0.499339773   0.750000000
   0.500000000   0.000637305   0.250000000
   0.500000000   0.001532795   0.750000000
   0.500000000   0.498890455   0.250000000
   0.500000000   0.498366140   0.750000000
Mg28Ni4O32
   1.00000000
   8.477290755   0.000000000  -0.000000000
   0.000000000   8.477883874   0.000000000
  -0.000000000   0.000000000   8.477616105
  Ni  Mg  O
  4  28  32
Direct configuration=     8
   0.000000000   0.000651785   0.000911879
   0.000000000   0.000651785   0.499088121
   0.000000000   0.249786204   0.250000000
   0.500000000   0.749134476   0.750000000
   0.000000000   0.500181801   0.999768406
   0.000000000   0.500181801   0.500231594
   0.500000000   0.999491577   0.999419049
   0.500000000   0.999491577   0.500580951
   0.500000000   0.499527939   0.000151380
   0.500000000   0.499527939   0.499848620
   0.000000000   0.247945819   0.750000000
   1.000000000   0.751252895   0.250000000
   0.000000000   0.753733479   0.750000000
   0.500000000   0.247368289   0.250000000
   0.500000000   0.249361823   0.750000000
   0.500000000   0.751893375   0.250000000
   0.248093005   0.000304731   0.250000000
   0.248900308   0.000184756   0.750000000
   0.249437639   0.499958666   0.250000000
   0.247541656   0.500004194   0.750000000
   0.751906995   0.000304731   0.250000000
   0.751099692   0.000184756   0.750000000
   0.750562361   0.499958666   0.250000000
   0.752458344   0.500004194   0.750000000
   0.248667258   0.248530805   0.000202418
   0.248667258   0.248530805   0.499797582
   0.248437665   0.751180937   0.999977386
   0.248437665   0.751180937   0.500022614
   0.751332742   0.248530805   0.000202418
   0.751332742   0.248530805   0.499797582
   0.751562335   0.751180937   0.999977386
   0.751562335   0.751180937   0.500022614
   0.247665754   0.248233310   0.250000000
   0.248064368   0.248743448   0.750000000
   0.247777940   0.751684258   0.250000000
   0.247009589   0.751049236   0.750000000
   0.752334246   0.248233310   0.250000000
   0.751935632   0.248743448   0.750000000
   0.752222060   0.751684258   0.250000000
   0.752990411   0.751049236   0.750000000
   0.249911644   0.999948360   0.999915394
   0.249911644   0.999948360   0.500084606
   0.249223641   0.500076095   0.000004479
   0.249223641   0.500076095   0.499995521
   0.750088356   0.999948360   0.999915394
   0.750088356   0.999948360   0.500084606
   0.750776359   0.500076095   0.000004479
   0.750776359   0.500076095   0.499995521
   0.000000000   0.248926284   0.000009795
   0.000000000   0.248926284   0.499990205
   0.000000000   0.751317599   0.000653861
   1.000000000   0.751317599   0.499346139
   0.500000000   0.249199269   0.000800574
   0.500000000   0.249199269   0.499199426
   0.500000000   0.750464811   0.000920959
   0.500000000   0.750464811   0.499079041
   0.000000000   0.001717710   0.250000000
   0.000000000   0.000689765   0.750000000
   1.000000000   0.499900620   0.250000000
   0.000000000   0.499465244   0.750000000
   0.500000000   0.000376298   0.250000000
   0.500000000   0.000663035   0.750000000
   0.500000000   0.498960443   0.250000000
   0.500000000   0.498958412   0.750000000
Mg28Ni4O32
   1.00000000
   8.488466443   0.000000000  -0.000000000
   0.000000000   8.489222980   0.000000000
  -0.000000000   0.000000000   8.488864378
  Ni  Mg  O
  4  28  32
Direct configuration=     9
   0.000000000   0.000804258   0.000751674
   0.000000000   0.000804258   0.499248326
   0.000000000   0.250182969   0.250000000
   0.500000000   0.749095582   0.750000000
   0.000000000   0.500063596   0.999990418
   0.000000000   0.500063596   0.500009582
   0.500000000   0.999438780   0.999347020
   0.500000000   0.999438780   0.500652980
   0.500000000   0.499447123   0.000265606
   0.500000000   0.499447123   0.499734394
   0.000000000   0.248064547   0.750000000
   0.000000000   0.751030001   0.250000000
   0.000000000   0.753451300   0.750000000
   0.500000000   0.247999735   0.250000000
   0.500000000   0.249755461   0.750000000
   0.500000000   0.751437653   0.250000000
   0.248343536   0.000214851   0.250000000
   0.249120044   0.000101043   0.750000000
   0.249592107   0.499831053   0.250000000
   0.247946751   0.499903220   0.750000000
   0.751656464   0.000214851   0.250000000
   0.750879956   0.000101043   0.750000000
   0.750407893   0.499831053   0.250000000
   0.752053249   0.499903220   0.750000000
   0.248832785   0.248907425   0.000185581
   0.248832785   0.248907425   0.499814419
   0.248698298   0.750958724   0.999972168
   0.248698298   0.750958724   0.500027832
   0.751167215   0.248907425   0.000185581
   0.751167215   0.248907425   0.499814419
   0.751301702   0.750958724   0.999972168
   0.751301702   0.750958724   0.500027832
   0.248234918   0.248703748   0.250000000
   0.248667639   0.248994641   0.750000000
   0.248296409   0.751534887   0.250000000
   0.247912959   0.750847682   0.750000000
   0.751765082   0.248703748   0.250000000
   0.751332361   0.248994641   0.750000000
   0.751703591   0.751534887   0.250000000
   0.752087041   0.750847682   0.750000000
   0.249813856   0.999909302   0.999956937
   0.249813856   0.999909302   0.500043063
   0.248952345   0.499993696   0.000064120
   0.248952345   0.499993696   0.499935880
   0.750186144   0.999909302   0.999956937
   0.750186144   0.999909302   0.500043063
   0.751047655   0.499993696   0.000064120
   0.751047655   0.499993696   0.499935880
   0.000000000   0.249096944   0.999861879
   0.000000000   0.249096944   0.500138121
   0.000000000   0.751483408   0.000670687
   0.000000000   0.751483408   0.499329313
   0.500000000   0.248895922   0.000553301
   0.500000000   0.248895922   0.499446699
   0.500000000   0.750384481   0.000341845
   0.500000000   0.750384481   0.499658155
   0.000000000   0.001288095   0.250000000
   0.000000000   0.000771092   0.750000000
   1.000000000   0.500126949   0.250000000
   0.000000000   0.499714366   0.750000000
   0.500000000   0.000029286   0.250000000
   0.500000000   0.999915972   0.750000000
   0.500000000   0.499163477   0.250000000
   0.500000000   0.499405650   0.750000000
Mg28Ni4O32
   1.00000000
   8.496511005   0.000000000  -0.000000000
   0.000000000   8.497382187   0.000000000
  -0.000000000   0.000000000   8.496954985
  Ni  Mg  O
  4  28  32
Direct configuration=     10
   0.000000000   0.000974944   0.000680105
   0.000000000   0.000974944   0.499319895
   0.000000000   0.250261377   0.250000000
   0.500000000   0.749067545   0.750000000
   0.000000000   0.499869588   0.000265015
   0.000000000   0.499869588   0.499734985
   0.500000000   0.999210684   0.999100930
   0.500000000   0.999210684   0.500899070
   0.500000000   0.499651413   0.000134019
   0.500000000   0.499651413   0.499865981
   0.000000000   0.248160380   0.750000000
   0.000000000   0.751034485   0.250000000
   0.000000000   0.753146214   0.750000000
   0.500000000   0.248767114   0.250000000
   0.500000000   0.250096708   0.750000000
   0.500000000   0.750808169   0.250000000
   0.248322954   0.000233432   0.250000000
   0.249355426   0.999801697   0.750000000
   0.249691587   0.499660820   0.250000000
   0.248683832   0.500063633   0.750000000
   0.751677046   0.000233432   0.250000000
   0.750644574   0.999801697   0.750000000
   0.750308413   0.499660820   0.250000000
   0.751316168   0.500063633   0.750000000
   0.248857535   0.249224450   0.000257411
   0.248857535   0.249224450   0.499742589
   0.249121742   0.750758987   0.999751963
   0.249121742   0.750758987   0.500248037
   0.751142465   0.249224450   0.000257411
   0.751142465   0.249224450   0.499742589
   0.750878258   0.750758987   0.999751963
   0.750878258   0.750758987   0.500248037
   0.249161713   0.249194026   0.250000000
   0.249402726   0.249367843   0.750000000
   0.249022839   0.751145415   0.250000000
   0.248504671   0.750485444   0.750000000
   0.750838287   0.249194026   0.250000000
   0.750597274   0.249367843   0.750000000
   0.750977161   0.751145415   0.250000000
   0.751495329   0.750485444   0.750000000
   0.249942902   0.000002161   0.000081587
   0.249942902   0.000002161   0.499918413
   0.248771194   0.499892009   0.000151178
   0.248771194   0.499892009   0.499848822
   0.750057098   0.000002161   0.000081587
   0.750057098   0.000002161   0.499918413
   0.751228806   0.499892009   0.000151178
   0.751228806   0.499892009   0.499848822
   0.000000000   0.249483485   0.999599303
   0.000000000   0.249483485   0.500400697
   0.000000000   0.751229347   0.000585221
   0.000000000   0.751229347   0.499414779
   0.500000000   0.248693406   0.000323166
   0.500000000   0.248693406   0.499676834
   0.500000000   0.750301036   0.000290194
   0.500000000   0.750301036   0.499709806
   0.000000000   0.000780651   0.250000000
   0.000000000   0.000756183   0.750000000
   0.000000000   0.500545530   0.250000000
   0.000000000   0.499970768   0.750000000
   0.500000000   0.999790969   0.250000000
   0.500000000   0.999778704   0.750000000
   0.500000000   0.499406701   0.250000000
   0.500000000   0.499385647   0.750000000
Mg28Ni4O32
   1.00000000
   8.498364560   0.000000000  -0.000000000
   0.000000000   8.499260939   0.000000000
  -0.000000000   0.000000000   8.498814377
  Ni  Mg  O
  4  28  32
Direct configuration=     11
   0.000000000   0.001031459   0.000710871
   0.000000000   0.001031459   0.499289129
   0.000000000   0.250073181   0.250000000
   0.500000000   0.749077434   0.750000000