Mg28Ni4O32
   1.00000000
   8.440334703  -0.000000000   0.000000000
  -0.000000000   8.440344236  -0.000000377
   0.000000000  -0.000000377   8.440344236
  Ni  Mg  O
  4  28  32
Direct configuration=     1
   0.000000000   0.999983193   0.999983193
   0.000000000   0.999967142   0.500009103
   0.000000000   0.500009103   0.999967142
   0.500000000   0.250034471   0.250034471
   0.000000000   0.499971782   0.499971782
   0.500000000   0.000111855   0.000111855
   0.500000000   0.000108934   0.499889544
   0.500000000   0.499889544   0.000108934
   0.500000000   0.499914768   0.499914768
   0.000000000   0.249852785   0.249852785
   0.000000000   0.249880863   0.750124319
   0.000000000   0.750124319   0.249880863
   0.000000000   0.750118419   0.750118419
   0.500000000   0.249993565   0.750008245
   0.500000000   0.750008245   0.249993565
   0.500000000   0.750004440   0.750004440
   0.249867780   0.000107908   0.249993611
   0.249790219   0.999985366   0.750008662
   0.249982253   0.499888753   0.249897773
   0.249904281   0.500015333   0.750116973
   0.750132220   0.000107908   0.249993611
   0.750209781   0.999985366   0.750008662
   0.750017747   0.499888753   0.249897773
   0.750095719   0.500015333   0.750116973
   0.249867780   0.249993611   0.000107908
   0.249982253   0.249897773   0.499888753
   0.249790219   0.750008662   0.999985366
   0.249904281   0.750116973   0.500015333
   0.750132220   0.249993611   0.000107908
   0.750017747   0.249897773   0.499888753
   0.750209781   0.750008662   0.999985366
   0.750095719   0.750116973   0.500015333
   0.249780476   0.250024858   0.250024858
   0.250059841   0.250002886   0.749985899
   0.250059841   0.749985899   0.250002886
   0.249999922   0.749996684   0.749996684
   0.750219524   0.250024858   0.250024858
   0.749940159   0.250002886   0.749985899
   0.749940159   0.749985899   0.250002886
   0.750000078   0.749996684   0.749996684
   0.250161424   0.999978554   0.999978554
   0.250165208   0.999985650   0.500020008
   0.250165208   0.500020008   0.999985650
   0.249934071   0.499999892   0.499999892
   0.749838576   0.999978554   0.999978554
   0.749834792   0.999985650   0.500020008
   0.749834792   0.500020008   0.999985650
   0.750065929   0.499999892   0.499999892
   0.000000000   0.249947252   0.000041189
   0.000000000   0.250260986   0.499972838
   0.000000000   0.750049448   0.000000793
   0.000000000   0.749763636   0.500002259
   0.500000000   0.250007115   0.999727859
   0.500000000   0.249954336   0.500256594
   0.500000000   0.749991347   0.000046594
   0.500000000   0.750034865   0.499951847
   0.000000000   0.000041189   0.249947252
   0.000000000   0.000000793   0.750049448
   0.000000000   0.499972838   0.250260986
   0.000000000   0.500002259   0.749763636
   0.500000000   0.999727859   0.250007115
   0.500000000   0.000046594   0.749991347
   0.500000000   0.500256594   0.249954336
   0.500000000   0.499951847   0.750034865
Mg28Ni4O32
   1.00000000
   8.442133294   0.000000000   0.000000000
   0.000000000   8.442194736  -0.000002408
   0.000000000  -0.000002408   8.442194736
  Ni  Mg  O
  4  28  32
Direct configuration=     2
   0.000000000   0.999914510   0.999914510
   0.000000000   0.999828753   0.500036770
   0.000000000   0.500036770   0.999828753
   0.500000000   0.250183639   0.250183639
   0.000000000   0.499817816   0.499817816
   0.500000000   0.000598341   0.000598341
   0.500000000   0.000581045   0.499411756
   0.500000000   0.499411756   0.000581045
   0.500000000   0.499558791   0.499558791
   0.000000000   0.249207804   0.249207804
   0.000000000   0.249369312   0.750655377
   0.000000000   0.750655377   0.249369312
   0.000000000   0.750623290   0.750623290
   0.500000000   0.249939869   0.750063924
   0.500000000   0.750063924   0.249939869
   0.500000000   0.750050169   0.750050169
   0.249275830   0.000559518   0.249945140
   0.248900058   0.999946066   0.750068124
   0.249853953   0.499422313   0.249470245
   0.249476790   0.500058269   0.750613414
   0.750724170   0.000559518   0.249945140
   0.751099942   0.999946066   0.750068124
   0.750146047   0.499422313   0.249470245
   0.750523210   0.500058269   0.750613414
   0.249275830   0.249945140   0.000559518
   0.249853953   0.249470245   0.499422313
   0.248900058   0.750068124   0.999946066
   0.249476790   0.750613414   0.500058269
   0.750724170   0.249945140   0.000559518
   0.750146047   0.249470245   0.499422313
   0.751099942   0.750068124   0.999946066
   0.750523210   0.750613414   0.500058269
   0.248785426   0.250111515   0.250111515
   0.250239863   0.249990538   0.749950706
   0.250239863   0.749950706   0.249990538
   0.249924786   0.750006540   0.750006540
   0.751214574   0.250111515   0.250111515
   0.749760137   0.249990538   0.749950706
   0.749760137   0.749950706   0.249990538
   0.750075214   0.750006540   0.750006540
   0.250864041   0.999903731   0.999903731
   0.250861595   0.999939117   0.500088938
   0.250861595   0.500088938   0.999939117
   0.249696746   0.499981192   0.499981192
   0.749135959   0.999903731   0.999903731
   0.749138405   0.999939117   0.500088938
   0.749138405   0.500088938   0.999939117
   0.750303254   0.499981192   0.499981192
   0.000000000   0.249714475   0.000220301
   0.000000000   0.251354208   0.499857441
   0.000000000   0.750265974   0.999995689
   0.000000000   0.748774817   0.500020604
   0.500000000   0.250048370   0.998584301
   0.500000000   0.249752712   0.501337784
   0.500000000   0.749942758   0.000230252
   0.500000000   0.750187208   0.499761210
   0.000000000   0.000220301   0.249714475
   0.000000000   0.999995689   0.750265974
   0.000000000   0.499857441   0.251354208
   0.000000000   0.500020604   0.748774817
   0.500000000   0.998584301   0.250048370
   0.500000000   0.000230252   0.749942758
   0.500000000   0.501337784   0.249752712
   0.500000000   0.499761210   0.750187208
Mg28Ni4O32
   1.00000000
   8.442656971   0.000000000   0.000000000
   0.000000000   8.442733966  -0.000003023
   0.000000000  -0.000003023   8.442733966
  Ni  Mg  O
  4  28  32
Direct configuration=     3
   0.000000000   0.999911248   0.999911248
   0.000000000   0.999817713   0.500029067
   0.000000000   0.500029067   0.999817713
   0.500000000   0.250198762   0.250198762
   0.000000000   0.499777199   0.499777199
   0.500000000   0.000645449   0.000645449
   0.500000000   0.000623267   0.499368483
   0.500000000   0.499368483   0.000623267
   0.500000000   0.499538744   0.499538744
   0.000000000   0.249143252   0.249143252
   0.000000000   0.249327737   0.750696998
   0.000000000   0.750696998   0.249327737
   0.000000000   0.750660447   0.750660447
   0.500000000   0.249912392   0.750085988
   0.500000000   0.750085988   0.249912392
   0.500000000   0.750077869   0.750077869
   0.249205503   0.000586637   0.249922633
   0.248836397   0.999962927   0.750092520
   0.249796022   0.499394484   0.249444093
   0.249426602   0.500042572   0.750649581
   0.750794497   0.000586637   0.249922633
   0.751163603   0.999962927   0.750092520
   0.750203978   0.499394484   0.249444093
   0.750573398   0.500042572   0.750649581
   0.249205503   0.249922633   0.000586637
   0.249796022   0.249444093   0.499394484
   0.248836397   0.750092520   0.999962927
   0.249426602   0.750649581   0.500042572
   0.750794497   0.249922633   0.000586637
   0.750203978   0.249444093   0.499394484
   0.751163603   0.750092520   0.999962927
   0.750573398   0.750649581   0.500042572
   0.248656736   0.250099776   0.250099776
   0.250183483   0.249966750   0.749971092
   0.250183483   0.749971092   0.249966750
   0.249851585   0.750029456   0.750029456
   0.751343264   0.250099776   0.250099776
   0.749816517   0.249966750   0.749971092
   0.749816517   0.749971092   0.249966750
   0.750148415   0.750029456   0.750029456
   0.250930006   0.999913999   0.999913999
   0.250903843   0.999949900   0.500078492
   0.250903843   0.500078492   0.999949900
   0.249717741   0.499962612   0.499962612
   0.749069994   0.999913999   0.999913999
   0.749096157   0.999949900   0.500078492
   0.749096157   0.500078492   0.999949900
   0.750282259   0.499962612   0.499962612
   0.000000000   0.249689167   0.000235247
   0.000000000   0.251416767   0.499849378
   0.000000000   0.750287626   0.999989327
   0.000000000   0.748718187   0.500027464
   0.500000000   0.250060165   0.998514835
   0.500000000   0.249732167   0.501406592
   0.500000000   0.749930288   0.000231047
   0.500000000   0.750202634   0.499759439
   0.000000000   0.000235247   0.249689167
   0.000000000   0.999989327   0.750287626
   0.000000000   0.499849378   0.251416767
   0.000000000   0.500027464   0.748718187
   0.500000000   0.998514835   0.250060165
   0.500000000   0.000231047   0.749930288
   0.500000000   0.501406592   0.249732167
   0.500000000   0.499759439   0.750202634
Mg28Ni4O32
   1.00000000
   8.450414760   0.000000000   0.000000000
   0.000000000   8.450722563  -0.000012272
   0.000000000  -0.000012272   8.450722563
  Ni  Mg  O
  4  28  32
Direct configuration=     4
   0.000000000   0.999891810   0.999891810
   1.000000000   0.999717561   0.499893150
   1.000000000   0.499893150   0.999717561
   0.500000000   0.250356781   0.250356781
   0.000000000   0.499230202   0.499230202
   0.500000000   0.001110892   0.001110892
   0.500000000   0.001008851   0.498965111
   0.500000000   0.498965111   0.001008851
   0.500000000   0.499439280   0.499439280
   1.000000000   0.248498562   0.248498562
   1.000000000   0.248970380   0.751041909
   1.000000000   0.751041909   0.248970380
   0.000000000   0.750943640   0.750943640
   0.500000000   0.249511290   0.750399169
   0.500000000   0.750399169   0.249511290
   0.500000000   0.750490484   0.750490484
   0.248440666   0.000752863   0.249597964
   0.248358519   0.000242560   0.750440608
   0.248948483   0.499230544   0.249276255
   0.248887665   0.499779928   0.750930492
   0.751559334   0.000752863   0.249597964
   0.751641481   0.000242560   0.750440608
   0.751051517   0.499230544   0.249276255
   0.751112335   0.499779928   0.750930492
   0.248440666   0.249597964   0.000752863
   0.248948483   0.249276255   0.499230544
   0.248358519   0.750440608   0.000242560
   0.248887665   0.750930492   0.499779928
   0.751559334   0.249597964   0.000752863
   0.751051517   0.249276255   0.499230544
   0.751641481   0.750440608   0.000242560
   0.751112335   0.750930492   0.499779928
   0.247211348   0.249858704   0.249858704
   0.249171565   0.249593603   0.750320439
   0.249171565   0.750320439   0.249593603
   0.248739019   0.750389704   0.750389704
   0.752788652   0.249858704   0.249858704
   0.750828435   0.249593603   0.750320439
   0.750828435   0.750320439   0.249593603
   0.751260981   0.750389704   0.750389704
   0.251553620   0.000128356   0.000128356
   0.251124301   0.000153627   0.499865610
   0.251124301   0.499865610   0.000153627
   0.250177827   0.499675937   0.499675937
   0.748446380   0.000128356   0.000128356
   0.748875699   0.000153627   0.499865610
   0.748875699   0.499865610   0.000153627
   0.749822173   0.499675937   0.499675937
   1.000000000   0.249418570   0.000355116
   1.000000000   0.251739023   0.499792429
   1.000000000   0.750506278   0.999905561
   0.000000000   0.748413511   0.500104504
   0.500000000   0.250213369   0.998120688
   0.500000000   0.249529073   0.501839128
   0.500000000   0.749776111   0.000143740
   0.500000000   0.750362810   0.499836629
   0.000000000   0.000355116   0.249418570
   1.000000000   0.999905561   0.750506278
   1.000000000   0.499792429   0.251739023
   0.000000000   0.500104504   0.748413511
   0.500000000   0.998120688   0.250213369
   0.500000000   0.000143740   0.749776111
   0.500000000   0.501839128   0.249529073
   0.500000000   0.499836629   0.750362810
Mg28Ni4O32
   1.00000000
   8.455796129   0.000000000   0.000000000
   0.000000000   8.456262006  -0.000018896
   0.000000000  -0.000018896   8.456262006
  Ni  Mg  O
  4  28  32
Direct configuration=     5
   0.000000000   0.999884608   0.999884608
   0.000000000   0.999683495   0.499802803
   0.000000000   0.499802803   0.999683495
   0.500000000   0.250424082   0.250424082
   0.000000000   0.498940040   0.498940040
   0.500000000   0.001273187   0.001273187
   0.500000000   0.001105213   0.498852284
   0.500000000   0.498852284   0.001105213
   0.500000000   0.499495377   0.499495377
   1.000000000   0.248277354   0.248277354
   1.000000000   0.248893866   0.751100571
   1.000000000   0.751100571   0.248893866
   0.000000000   0.750960234   0.750960234
   0.500000000   0.249277578   0.750574322
   0.500000000   0.750574322   0.249277578
   0.500000000   0.750739657   0.750739657
   0.248132321   0.000729250   0.249412881
   0.248328927   0.000412477   0.750638559
   0.248440878   0.499267392   0.249286852
   0.248679805   0.499618835   0.750962872
   0.751867679   0.000729250   0.249412881
   0.751671073   0.000412477   0.750638559
   0.751559122   0.499267392   0.249286852
   0.751320195   0.499618835   0.750962872
   0.248132321   0.249412881   0.000729250
   0.248440878   0.249286852   0.499267392
   0.248328927   0.750638559   0.000412477
   0.248679805   0.750962872   0.499618835
   0.751867679   0.249412881   0.000729250
   0.751559122   0.249286852   0.499267392
   0.751671073   0.750638559   0.000412477
   0.751320195   0.750962872   0.499618835
   0.246604552   0.249675349   0.249675349
   0.248461383   0.249356759   0.750561188
   0.248461383   0.750561188   0.249356759
   0.248066384   0.750619617   0.750619617
   0.753395448   0.249675349   0.249675349
   0.751538617   0.249356759   0.750561188
   0.751538617   0.750561188   0.249356759
   0.751933616   0.750619617   0.750619617
   0.251726631   0.000297714   0.000297714
   0.250990167   0.000303895   0.499699409
   0.250990167   0.499699409   0.000303895
   0.250514314   0.499494929   0.499494929
   0.748273369   0.000297714   0.000297714
   0.749009833   0.000303895   0.499699409
   0.749009833   0.499699409   0.000303895
   0.749485686   0.499494929   0.499494929
   0.000000000   0.249302877   0.000357995
   1.000000000   0.251576960   0.499794634
   0.000000000   0.750587281   0.999876374
   0.000000000   0.748528624   0.500113059
   0.500000000   0.250283369   0.998266287
   0.500000000   0.249466001   0.501758959
   0.500000000   0.749717212   0.000049995
   0.500000000   0.750430102   0.499929650
   0.000000000   0.000357995   0.249302877
   0.000000000   0.999876374   0.750587281
   1.000000000   0.499794634   0.251576960
   0.000000000   0.500113059   0.748528624
   0.500000000   0.998266287   0.250283369
   0.500000000   0.000049995   0.749717212
   0.500000000   0.501758959   0.249466001
   0.500000000   0.499929650   0.750430102
Mg28Ni4O32
   1.00000000
   8.462190315   0.000000000   0.000000000
   0.000000000   8.462838486  -0.000027106
   0.000000000  -0.000027106   8.462838486
  Ni  Mg  O
  4  28  32
Direct configuration=     6
   0.000000000   0.999861826   0.999861826
   0.000000000   0.999659976   0.499726492
   0.000000000   0.499726492   0.999659976
   0.500000000   0.250474075   0.250474075
   0.000000000   0.498740102   0.498740102
   0.500000000   0.001339893   0.001339893
   0.500000000   0.001080618   0.498852177
   0.500000000   0.498852177   0.001080618
   0.500000000   0.499639236   0.499639236
   0.000000000   0.248207654   0.248207654
   0.000000000   0.248925332   0.751040133
   0.000000000   0.751040133   0.248925332
   0.000000000   0.750848767   0.750848767
   0.500000000   0.249096484   0.750702257
   0.500000000   0.750702257   0.249096484
   0.500000000   0.750947408   0.750947408
   0.247986714   0.000628650   0.249275571
   0.248497699   0.000531523   0.750788950
   0.248014256   0.499396977   0.249362553
   0.248598740   0.499502519   0.750894059
   0.752013286   0.000628650   0.249275571
   0.751502301   0.000531523   0.750788950
   0.751985744   0.499396977   0.249362553
   0.751401260   0.499502519   0.750894059
   0.247986714   0.249275571   0.000628650
   0.248014256   0.249362553   0.499396977
   0.248497699   0.750788950   0.000531523
   0.248598740   0.750894059   0.499502519
   0.752013286   0.249275571   0.000628650
   0.751985744   0.249362553   0.499396977
   0.751502301   0.750788950   0.000531523
   0.751401260   0.750894059   0.499502519
   0.246312728   0.249493687   0.249493687
   0.247795633   0.249150807   0.750789798
   0.247795633   0.750789798   0.249150807
   0.247529855   0.750822275   0.750822275
   0.753687272   0.249493687   0.249493687
   0.752204367   0.249150807   0.750789798
   0.752204367   0.750789798   0.249150807
   0.752470145   0.750822275   0.750822275
   0.251705817   0.000476551   0.000476551
   0.250606683   0.000453043   0.499524493
   0.250606683   0.499524493   0.000453043
   0.250797985   0.499336869   0.499336869
   0.748294183   0.000476551   0.000476551
   0.749393317   0.000453043   0.499524493
   0.749393317   0.499524493   0.000453043
   0.749202015   0.499336869   0.499336869
   0.000000000   0.249221522   0.000288031
   0.000000000   0.251139451   0.499824864
   0.000000000   0.750627899   0.999889155
   0.000000000   0.748852264   0.500053947
   0.500000000   0.250311639   0.998728993
   0.500000000   0.249461306   0.501410247
   0.500000000   0.749719952   0.999965084
   0.500000000   0.750481322   0.500025245
   0.000000000   0.000288031   0.249221522
   0.000000000   0.999889155   0.750627899
   0.000000000   0.499824864   0.251139451
   0.000000000   0.500053947   0.748852264
   0.500000000   0.998728993   0.250311639
   0.500000000   0.999965084   0.749719952
   0.500000000   0.501410247   0.249461306
   0.500000000   0.500025245   0.750481322
Mg28Ni4O32
   1.00000000
   8.468409556   0.000000000   0.000000000
   0.000000000   8.469227675  -0.000035493
   0.000000000  -0.000035493   8.469227675
  Ni  Mg  O
  4  28  32
Direct configuration=     7
   0.000000000   0.999810025   0.999810025
   0.000000000   0.999633328   0.499703614
   0.000000000   0.499703614   0.999633328
   0.500000000   0.250509843   0.250509843
   0.000000000   0.498713955   0.498713955
   0.500000000   0.001340686   0.001340686
   0.500000000   0.000985016   0.498921339
   0.500000000   0.498921339   0.000985016
   0.500000000   0.499784634   0.499784634
   0.000000000   0.248258010   0.248258010
   0.000000000   0.249000714   0.750932267
   0.000000000   0.750932267   0.249000714
   0.000000000   0.750690552   0.750690552
   0.500000000   0.249051125   0.750726610
   0.500000000   0.750726610   0.249051125
   0.500000000   0.751026462   0.751026462
   0.248017466   0.000542477   0.249249699
   0.248716831   0.000527555   0.750826782
   0.247842093   0.499523017   0.249421340
   0.248647913   0.499498457   0.750799211
   0.751982534   0.000542477   0.249249699
   0.751283169   0.000527555   0.750826782
   0.752157907   0.499523017   0.249421340
   0.751352087   0.499498457   0.750799211
   0.248017466   0.249249699   0.000542477
   0.247842093   0.249421340   0.499523017
   0.248716831   0.750826782   0.000527555
   0.248647913   0.750799211   0.499498457
   0.751982534   0.249249699   0.000542477
   0.752157907   0.249421340   0.499523017
   0.751283169   0.750826782   0.000527555
   0.751352087   0.750799211   0.499498457
   0.246401283   0.249403379   0.249403379
   0.247496641   0.249068427   0.750903519
   0.247496641   0.750903519   0.249068427
   0.247389137   0.750906874   0.750906874
   0.753598717   0.249403379   0.249403379
   0.752503359   0.249068427   0.750903519
   0.752503359   0.750903519   0.249068427
   0.752610863   0.750906874   0.750906874
   0.251542897   0.000582550   0.000582550
   0.250140560   0.000530250   0.499421038
   0.250140560   0.499421038   0.000530250
   0.250846433   0.499273783   0.499273783
   0.748457103   0.000582550   0.000582550
   0.749859440   0.000530250   0.499421038
   0.749859440   0.499421038   0.000530250
   0.749153567   0.499273783   0.499273783
   0.000000000   0.249170244   0.000175943
   0.000000000   0.250679301   0.499857512
   0.000000000   0.750638454   0.999946866
   0.000000000   0.749162115   0.499928468
   0.500000000   0.250285022   0.999258598
   0.500000000   0.249501511   0.501013728
   0.500000000   0.749797396   0.999962694
   0.500000000   0.750523934   0.500053316
   0.000000000   0.000175943   0.249170244
   0.000000000   0.999946866   0.750638454
   0.000000000   0.499857512   0.250679301
   0.000000000   0.499928468   0.749162115
   0.500000000   0.999258598   0.250285022
   0.500000000   0.999962694   0.749797396
   0.500000000   0.501013728   0.249501511
   0.500000000   0.500053316   0.750523934
Mg28Ni4O32
   1.00000000
   8.478540955   0.000000000   0.000000000
   0.000000000   8.479627822  -0.000049590
   0.000000000  -0.000049590   8.479627822
  Ni  Mg  O
  4  28  32
Direct configuration=     8
   0.000000000   0.999686526   0.999686526
   0.000000000   0.999569548   0.499735180
   0.000000000   0.499735180   0.999569548
   0.500000000   0.250568534   0.250568534
   0.000000000   0.498860208   0.498860208
   0.500000000   0.001334952   0.001334952
   0.500000000   0.000828949   0.499040054
   0.500000000   0.499040054   0.000828949
   0.500000000   0.499948313   0.499948313
   0.000000000   0.248389157   0.248389157
   0.000000000   0.249093211   0.750786157
   0.000000000   0.750786157   0.249093211
   0.000000000   0.750465750   0.750465750
   0.500000000   0.249142364   0.750648940
   0.500000000   0.750648940   0.249142364
   0.500000000   0.750998378   0.750998378
   0.248195766   0.000492785   0.249337060
   0.248980599   0.000376667   0.750758586
   0.247876868   0.499644742   0.249432021
   0.248816512   0.499623862   0.750691715
   0.751804234   0.000492785   0.249337060
   0.751019401   0.000376667   0.750758586
   0.752123132   0.499644742   0.249432021
   0.751183488   0.499623862   0.750691715
   0.248195766   0.249337060   0.000492785
   0.247876868   0.249432021   0.499644742
   0.248980599   0.750758586   0.000376667
   0.248816512   0.750691715   0.499623862
   0.751804234   0.249337060   0.000492785
   0.752123132   0.249432021   0.499644742
   0.751019401   0.750758586   0.000376667
   0.751183488   0.750691715   0.499623862
   0.246864268   0.249398055   0.249398055
   0.247548421   0.249098462   0.750922029
   0.247548421   0.750922029   0.249098462
   0.247663061   0.750883394   0.750883394
   0.753135732   0.249398055   0.249398055
   0.752451579   0.249098462   0.750922029
   0.752451579   0.750922029   0.249098462
   0.752336939   0.750883394   0.750883394
   0.251217274   0.000634214   0.000634214
   0.249446789   0.000542357   0.499372507
   0.249446789   0.499372507   0.000542357
   0.250596067   0.499301661   0.499301661
   0.748782726   0.000634214   0.000634214
   0.750553211   0.000542357   0.499372507
   0.750553211   0.499372507   0.000542357
   0.749403933   0.499301661   0.499301661
   0.000000000   0.249089665   0.999987194
   0.000000000   0.250117598   0.499885011
   0.000000000   0.750649533   0.000065251
   0.000000000   0.749464414   0.499678118
   0.500000000   0.250202139   0.999972443
   0.500000000   0.249585033   0.500519426
   0.500000000   0.749986218   0.000085770
   0.500000000   0.750604529   0.499991205
   0.000000000   0.999987194   0.249089665
   0.000000000   0.000065251   0.750649533
   0.000000000   0.499885011   0.250117598
   0.000000000   0.499678118   0.749464414
   0.500000000   0.999972443   0.250202139
   0.500000000   0.000085770   0.749986218
   0.500000000   0.500519426   0.249585033
   0.500000000   0.499991205   0.750604529
Mg28Ni4O32
   1.00000000
   8.489452726   0.000000000   0.000000000
   0.000000000   8.490823776  -0.000065078
   0.000000000  -0.000065078   8.490823776
  Ni  Mg  O
  4  28  32
Direct configuration=     9
   0.000000000   0.999526074   0.999526074
   0.000000000   0.999479104   0.499830778
   0.000000000   0.499830778   0.999479104
   0.500000000   0.250636308   0.250636308
   0.000000000   0.499173284   0.499173284
   0.500000000   0.001358536   0.001358536
   0.500000000   0.000721352   0.499127315
   0.500000000   0.499127315   0.000721352
   0.500000000   0.499997794   0.499997794
   0.000000000   0.248523615   0.248523615
   0.000000000   0.249114837   0.750708852
   0.000000000   0.750708852   0.249114837
   0.000000000   0.750315967   0.750315967
   0.500000000   0.249392753   0.750465877
   0.500000000   0.750465877   0.249392753
   0.500000000   0.750823370   0.750823370
   0.248457136   0.000560985   0.249541655
   0.249080006   0.000102939   0.750573210
   0.248220133   0.499649956   0.249336846
   0.249032878   0.499860591   0.750663388
   0.751542864   0.000560985   0.249541655
   0.750919994   0.000102939   0.750573210
   0.751779867   0.499649956   0.249336846
   0.750967122   0.499860591   0.750663388
   0.248457136   0.249541655   0.000560985
   0.248220133   0.249336846   0.499649956
   0.249080006   0.750573210   0.000102939
   0.249032878   0.750663388   0.499860591
   0.751542864   0.249541655   0.000560985
   0.751779867   0.249336846   0.499649956
   0.750919994   0.750573210   0.000102939
   0.750967122   0.750663388   0.499860591
   0.247566863   0.249551214   0.249551214
   0.248189342   0.249297293   0.750760158
   0.248189342   0.750760158   0.249297293
   0.248438791   0.750688228   0.750688228
   0.752433137   0.249551214   0.249551214
   0.751810658   0.249297293   0.750760158
   0.751810658   0.750760158   0.249297293
   0.751561209   0.750688228   0.750688228
   0.250885764   0.000545710   0.000545710
   0.248918666   0.000422852   0.499466254
   0.248918666   0.499466254   0.000422852
   0.250013954   0.499470024   0.499470024
   0.749114236   0.000545710   0.000545710
   0.751081334   0.000422852   0.499466254
   0.751081334   0.499466254   0.000422852
   0.749986046   0.499470024   0.499470024
   0.000000000   0.248992923   0.999821304
   0.000000000   0.249848886   0.499867010
   0.000000000   0.750667423   0.000167873
   0.000000000   0.749473176   0.499422141
   0.500000000   0.250114293   0.000419635
   0.500000000   0.249666952   0.500286409
   0.500000000   0.750206111   0.000340379
   0.500000000   0.750707308   0.499819753
   0.000000000   0.999821304   0.248992923
   0.000000000   0.000167873   0.750667423
   0.000000000   0.499867010   0.249848886
   0.000000000   0.499422141   0.749473176
   0.500000000   0.000419635   0.250114293
   0.500000000   0.000340379   0.750206111
   0.500000000   0.500286409   0.249666952
   0.500000000   0.499819753   0.750707308
Mg28Ni4O32
   1.00000000
   8.496119058   0.000000000   0.000000000
   0.000000000   8.497662466  -0.000074736
   0.000000000  -0.000074736   8.497662466
  Ni  Mg  O
  4  28  32
Direct configuration=     10
   0.000000000   0.999425537   0.999425537
   0.000000000   0.999416071   0.499929957
   0.000000000   0.499929957   0.999416071
   0.500000000   0.250673398   0.250673398
   0.000000000   0.499469522   0.499469522
   0.500000000   0.001394803   0.001394803
   0.500000000   0.000734507   0.499137790
   0.500000000   0.499137790   0.000734507
   0.500000000   0.499891280   0.499891280
   0.000000000   0.248592945   0.248592945
   0.000000000   0.249051814   0.750740164
   0.000000000   0.750740164   0.249051814
   0.000000000   0.750327730   0.750327730
   0.500000000   0.249663046   0.750286501
   0.500000000   0.750286501   0.249663046
   0.500000000   0.750603991   0.750603991
   0.248658937   0.000699479   0.249741798
   0.248958929   0.999883532   0.750381339
   0.248688440   0.499539007   0.249203930
   0.249171111   0.500051167   0.750722310
   0.751341063   0.000699479   0.249741798
   0.751041071   0.999883532   0.750381339
   0.751311560   0.499539007   0.249203930
   0.750828889   0.500051167   0.750722310
   0.248658937   0.249741798   0.000699479
   0.248688440   0.249203930   0.499539007
   0.248958929   0.750381339   0.999883532
   0.249171111   0.750722310   0.500051167
   0.751341063   0.249741798   0.000699479
   0.751311560   0.249203930   0.499539007
   0.751041071   0.750381339   0.999883532
   0.750828889   0.750722310   0.500051167
   0.248119313   0.249790884   0.249790884
   0.249107430   0.249562072   0.750494705
   0.249107430   0.750494705   0.249562072
   0.249293836   0.750416748   0.750416748
   0.751880687   0.249790884   0.249790884
   0.750892570   0.249562072   0.750494705
   0.750892570   0.750494705   0.249562072
   0.750706164   0.750416748   0.750416748
   0.250734238   0.000350695   0.000350695
   0.248905487   0.000221389   0.499670061
   0.248905487   0.499670061   0.000221389
   0.249442133   0.499697256   0.499697256
   0.749265762   0.000350695   0.000350695
   0.751094513   0.000221389   0.499670061
   0.751094513   0.499670061   0.000221389
   0.750557867   0.499697256   0.499697256
   0.000000000   0.248933729   0.999786140
   0.000000000   0.250046909   0.499802157
   0.000000000   0.750675676   0.000152828
   0.000000000   0.749165544   0.499345558
   0.500000000   0.250106263   0.000316934
   0.500000000   0.249699496   0.500475932
   0.500000000   0.750303772   0.000575931
   0.500000000   0.750772510   0.499648824
   0.000000000   0.999786140   0.248933729
   0.000000000   0.000152828   0.750675676
   0.000000000   0.499802157   0.250046909
   0.000000000   0.499345558   0.749165544
   0.500000000   0.000316934   0.250106263
   0.500000000   0.000575931   0.750303772
   0.500000000   0.500475932   0.249699496
   0.500000000   0.499648824   0.750772510
Mg28Ni4O32
   1.00000000
   8.497256915   0.000000000   0.000000000
   0.000000000   8.498832289  -0.000076570
   0.000000000  -0.000076570   8.498832289
  Ni  Mg  O
  4  28  32
Direct configuration=     11
   0.000000000   0.999432588   0.999432588
   0.000000000   0.999416739   0.499962708
   0.000000000   0.499962708   0.999416739
   0.500000000   0.250661415   0.250661415