Mg28Ni4O32
   1.00000000
   8.440355562   0.000000000  -0.000002843
   0.000000000   8.440335949   0.000000000
  -0.000002843   0.000000000   8.440343743
  Ni  Mg  O
  4  28  32
Direct configuration=     1
   0.999944236   0.000000000   0.999967651
   0.999949398   0.000000000   0.500030133
   0.000054324   0.500000000   0.000075535
   0.249989737   0.500000000   0.249932913
   0.000093348   0.500000000   0.499908558
   0.500003883   0.000000000   0.000002244
   0.499988437   0.000000000   0.499993281
   0.499930302   0.500000000   0.000063368
   0.499925135   0.500000000   0.499929018
   0.000090538   0.249935657   0.249883545
   0.999987375   0.249844140   0.750107898
   0.000090538   0.750064343   0.249883545
   0.999987375   0.750155860   0.750107898
   0.499905853   0.250058738   0.250011421
   0.500017872   0.250009763   0.749991011
   0.499905853   0.749941262   0.250011421
   0.500017872   0.749990237   0.749991011
   0.249733964   0.000000000   0.249995721
   0.249792853   0.000000000   0.749989372
   0.249899314   0.500000000   0.750091899
   0.750205852   0.000000000   0.249995015
   0.750210838   0.000000000   0.750008893
   0.750102268   0.500000000   0.249911976
   0.750104686   0.500000000   0.750099465
   0.249790530   0.250059694   0.000094165
   0.249908572   0.249949676   0.499915508
   0.249790530   0.749940306   0.000094165
   0.249908572   0.750050324   0.499915508
   0.750213202   0.249957601   0.999981448
   0.750104368   0.249900054   0.500018342
   0.750213202   0.750042399   0.999981448
   0.750104368   0.750099946   0.500018342
   0.250011436   0.249844914   0.249965803
   0.250004272   0.250067138   0.749994306
   0.250011436   0.750155086   0.249965803
   0.250004272   0.749932862   0.749994306
   0.749969016   0.250069447   0.250000071
   0.749995862   0.250017622   0.749998502
   0.749969016   0.749930553   0.250000071
   0.749995862   0.749982378   0.749998502
   0.250159752   0.000000000   0.000068655
   0.250177179   0.000000000   0.499944721
   0.250062338   0.500000000   0.999864411
   0.249913792   0.500000000   0.500186843
   0.749850687   0.000000000   0.000014281
   0.749844040   0.000000000   0.499987680
   0.749889102   0.500000000   0.000055158
   0.750068610   0.500000000   0.499943039
   0.000025679   0.250010708   0.000017703
   0.999992345   0.250260082   0.500021095
   0.000025679   0.749989292   0.000017703
   0.999992345   0.749739918   0.500021095
   0.500000628   0.250024027   0.000016438
   0.499995582   0.249978104   0.499986180
   0.500000628   0.749975973   0.000016438
   0.499995582   0.750021896   0.499986180
   0.000083472   0.000000000   0.249933190
   0.000014596   0.000000000   0.750057491
   0.999852736   0.500000000   0.250137120
   0.000050458   0.500000000   0.749816105
   0.499957783   0.000000000   0.249995645
   0.499997278   0.000000000   0.749997964
   0.500181003   0.500000000   0.249943887
   0.499942336   0.500000000   0.750051894
Mg28Ni4O32
   1.00000000
   8.442407923   0.000000000  -0.000019873
   0.000000000   8.442275772   0.000000000
  -0.000019873   0.000000000   8.442329026
  Ni  Mg  O
  4  28  32
Direct configuration=     2
   0.999686383   0.000000000   0.999820438
   0.999703213   0.000000000   0.500161709
   0.000303436   0.500000000   0.000430011
   0.249936921   0.500000000   0.249627171
   0.000538286   0.500000000   0.499477528
   0.499985572   0.000000000   0.000040369
   0.499909883   0.000000000   0.499931103
   0.499613734   0.500000000   0.000358152
   0.499584848   0.500000000   0.499603821
   0.000508855   0.249647217   0.249335700
   0.999959768   0.249142342   0.750609371
   0.000508855   0.750352783   0.249335700
   0.999959768   0.750857658   0.750609371
   0.499470761   0.250297282   0.250039825
   0.500075199   0.250060297   0.749973215
   0.499470761   0.749702718   0.250039825
   0.500075199   0.749939703   0.749973215
   0.248455453   0.000000000   0.249943262
   0.248829226   0.000000000   0.749964550
   0.249366252   0.500000000   0.750517557
   0.751170513   0.000000000   0.249957364
   0.751190559   0.000000000   0.750065451
   0.750621135   0.500000000   0.249503969
   0.750652366   0.500000000   0.750557749
   0.248799688   0.250325380   0.000534110
   0.249442107   0.249711375   0.499528528
   0.248799688   0.749674620   0.000534110
   0.249442107   0.750288625   0.499528528
   0.751221071   0.249760307   0.999923824
   0.750634405   0.249475557   0.500077263
   0.751221071   0.750239693   0.999923824
   0.750634405   0.750524443   0.500077263
   0.250002129   0.249119719   0.249784155
   0.249959712   0.250344712   0.749987963
   0.250002129   0.750880281   0.249784155
   0.249959712   0.749655288   0.749987963
   0.749892660   0.250355736   0.249978170
   0.750045936   0.250063934   0.750018513
   0.749892660   0.749644264   0.249978170
   0.750045936   0.749936066   0.750018513
   0.250875196   0.000000000   0.000389078
   0.250960435   0.000000000   0.499682271
   0.250300922   0.500000000   0.999270217
   0.249531144   0.500000000   0.501014958
   0.749180059   0.000000000   0.000074754
   0.749157450   0.000000000   0.499935752
   0.749425988   0.500000000   0.000301561
   0.750367313   0.500000000   0.499687576
   0.000160282   0.250069270   0.000117052
   0.999969466   0.251466095   0.500107670
   0.000160282   0.749930730   0.000117052
   0.999969466   0.748533905   0.500107670
   0.499992941   0.250170964   0.000106211
   0.499955898   0.249901555   0.499903974
   0.499992941   0.749829036   0.000106211
   0.499955898   0.750098445   0.499903974
   0.000477040   0.000000000   0.249611401
   0.000074028   0.000000000   0.750338581
   0.999213086   0.500000000   0.250736494
   0.000275088   0.500000000   0.749005598
   0.499762165   0.000000000   0.249985772
   0.499998788   0.000000000   0.749976511
   0.500989869   0.500000000   0.249678448
   0.499681896   0.500000000   0.750299736
Mg28Ni4O32
   1.00000000
   8.443018916   0.000000000  -0.000025328
   0.000000000   8.442853180   0.000000000
  -0.000025328   0.000000000   8.442920270
  Ni  Mg  O
  4  28  32
Direct configuration=     3
   0.999661282   0.000000000   0.999809527
   0.999667490   0.000000000   0.500166630
   0.000324655   0.500000000   0.000469346
   0.249926964   0.500000000   0.249601780
   0.000590802   0.500000000   0.499431925
   0.499951121   0.000000000   0.000068349
   0.499880821   0.000000000   0.499897567
   0.499592061   0.500000000   0.000385051
   0.499558665   0.500000000   0.499577908
   0.000546431   0.249630674   0.249279200
   0.999984521   0.249097261   0.750656283
   0.000546431   0.750369326   0.249279200
   0.999984521   0.750902739   0.750656283
   0.499432316   0.250288682   0.250020579
   0.500058763   0.250070224   0.749992751
   0.499432316   0.749711318   0.250020579
   0.500058763   0.749929776   0.749992751
   0.248298178   0.000000000   0.249908929
   0.248740033   0.000000000   0.749984285
   0.249257520   0.500000000   0.750555000
   0.751270554   0.000000000   0.249941200
   0.751280044   0.000000000   0.750084067
   0.750706823   0.500000000   0.249465797
   0.750760494   0.500000000   0.750599082
   0.248691886   0.250340078   0.000577155
   0.249360598   0.249684300   0.499496611
   0.248691886   0.749659922   0.000577155
   0.249360598   0.750315700   0.499496611
   0.751330971   0.249741454   0.999943320
   0.750724291   0.249471472   0.500060130
   0.751330971   0.750258546   0.999943320
   0.750724291   0.750528528   0.500060130
   0.249943438   0.249048859   0.249747066
   0.249895663   0.250338597   0.750006634
   0.249943438   0.750951141   0.249747066
   0.249895663   0.749661403   0.750006634
   0.749948902   0.250348993   0.249955594
   0.750115008   0.250037526   0.750045140
   0.749948902   0.749651007   0.249955594
   0.750115008   0.749962474   0.750045140
   0.250917069   0.000000000   0.000418799
   0.250993079   0.000000000   0.499653248
   0.250273690   0.500000000   0.999249789
   0.249512339   0.500000000   0.501056213
   0.749138690   0.000000000   0.000077513
   0.749131246   0.000000000   0.499933450
   0.749433673   0.500000000   0.000315834
   0.750379652   0.500000000   0.499670790
   0.000186442   0.250082632   0.000141867
   0.999979677   0.251575116   0.500104575
   0.000186442   0.749917368   0.000141867
   0.999979677   0.748424884   0.500104575
   0.499981451   0.250215480   0.000127333
   0.499934259   0.249917433   0.499879467
   0.499981451   0.749784520   0.000127333
   0.499934259   0.750082567   0.499879467
   0.000513248   0.000000000   0.249571132
   0.000073522   0.000000000   0.750376768
   0.999197332   0.500000000   0.250755345
   0.000286961   0.500000000   0.748970217
   0.499744240   0.000000000   0.249992344
   0.500008686   0.000000000   0.749965286
   0.501036741   0.500000000   0.249649354
   0.499663094   0.500000000   0.750330065
Mg28Ni4O32
   1.00000000
   8.450954157   0.000000000  -0.000096953
   0.000000000   8.450351483  -0.000000000
  -0.000096953  -0.000000000   8.450598806
  Ni  Mg  O
  4  28  32
Direct configuration=     4
   0.999456209   0.000000000   0.999741870
   0.999300851   0.000000000   0.500155894
   0.000473268   0.500000000   0.000817284
   0.249823237   0.500000000   0.249427864
   0.001071229   0.500000000   0.499045834
   0.499473597   0.000000000   0.000437690
   0.499519447   0.000000000   0.499460523
   0.499487016   0.500000000   0.000580364
   0.499395085   0.500000000   0.499416092
   0.000825655   0.249577976   0.248816500
   0.000345121   0.248889057   0.751016233
   0.000825655   0.750422024   0.248816500
   0.000345121   0.751110943   0.751016233
   0.499154195   0.250019048   0.249732874
   0.499800560   0.250184398   0.750278020
   0.499154195   0.749980952   0.249732874
   0.499800560   0.749815602   0.750278020
   0.246846654   0.000000000   0.249451649
   0.248077564   0.000000000   0.750281879
   0.248043043   0.500000000   0.750824747
   0.752100163   0.000000000   0.249737519
   0.751928009   0.000000000   0.750311146
   0.751595861   0.500000000   0.249168632
   0.751962385   0.500000000   0.750910464
   0.247775785   0.250387233   0.000917487
   0.248493759   0.249442434   0.499276369
   0.247775785   0.749612767   0.000917487
   0.248493759   0.750557566   0.499276369
   0.752267204   0.249594814   0.000247828
   0.751666513   0.249676916   0.499789629
   0.752267204   0.750405186   0.000247828
   0.751666513   0.750323084   0.499789629
   0.249107972   0.248496574   0.249332751
   0.249003312   0.250077536   0.750283441
   0.249107972   0.751503426   0.249332751
   0.249003312   0.749922464   0.750283441
   0.750812349   0.250076332   0.249646530
   0.751076563   0.249645076   0.750413257
   0.750812349   0.749923668   0.249646530
   0.751076563   0.750354924   0.750413257
   0.251056056   0.000000000   0.000633273
   0.250923628   0.000000000   0.499406292
   0.249715239   0.500000000   0.999338462
   0.249472488   0.500000000   0.501121193
   0.748968886   0.000000000   0.000097055
   0.749217444   0.000000000   0.499916212
   0.749863960   0.500000000   0.000374776
   0.750394551   0.500000000   0.499581887
   0.000476220   0.250229075   0.000435083
   0.000143385   0.252371952   0.499999016
   0.000476220   0.749770925   0.000435083
   0.000143385   0.747628048   0.499999016
   0.499815574   0.250748630   0.000375871
   0.499648947   0.250188617   0.499578627
   0.499815574   0.749251370   0.000375871
   0.499648947   0.749811383   0.499578627
   0.000763490   0.000000000   0.249198208
   0.000042867   0.000000000   0.750745347
   0.999389653   0.500000000   0.250646904
   0.000324724   0.500000000   0.748973755
   0.499608253   0.000000000   0.250077140
   0.500127242   0.000000000   0.749830519
   0.501201563   0.500000000   0.249394142
   0.499550115   0.500000000   0.750616353
Mg28Ni4O32
   1.00000000
   8.456546995   0.000000000  -0.000147853
   0.000000000   8.455633579  -0.000000000
  -0.000147853  -0.000000000   8.456008213
  Ni  Mg  O
  4  28  32
Direct configuration=     5
   0.999391202   0.000000000   0.999737931
   0.999119800   0.000000000   0.500107173
   0.000492555   0.500000000   0.000945679
   0.249781287   0.500000000   0.249409403
   0.001261545   0.500000000   0.498921353
   0.499165145   0.000000000   0.000661627
   0.499309544   0.000000000   0.499193534
   0.499531930   0.500000000   0.000606422
   0.499394305   0.500000000   0.499423005
   0.000878976   0.249643967   0.248692172
   0.000575950   0.248975546   0.751097548
   0.000878976   0.750356033   0.248692172
   0.000575950   0.751024454   0.751097548
   0.499108993   0.249764235   0.249539618
   0.499626931   0.250251237   0.750467497
   0.499108993   0.750235765   0.249539618
   0.499626931   0.749748763   0.750467497
   0.246290798   0.000000000   0.249163345
   0.247966798   0.000000000   0.750490655
   0.247416222   0.500000000   0.750867659
   0.752342880   0.000000000   0.249619607
   0.752007222   0.000000000   0.750438947
   0.752002923   0.500000000   0.249092899
   0.752586945   0.500000000   0.750979959
   0.247499247   0.250336366   0.000999383
   0.248078705   0.249351996   0.499246187
   0.247499247   0.749663634   0.000999383
   0.248078705   0.750648004   0.499246187
   0.752555721   0.249560250   0.000453507
   0.752106438   0.249953151   0.499606468
   0.752555721   0.750439750   0.000453507
   0.752106438   0.750046849   0.499606468
   0.248551402   0.248377890   0.249120451
   0.248416693   0.249812979   0.750480880
   0.248551402   0.751622110   0.249120451
   0.248416693   0.750187021   0.750480880
   0.751436226   0.249806041   0.249447931
   0.751713424   0.249391833   0.750653573
   0.751436226   0.750193959   0.249447931
   0.751713424   0.750608167   0.750653573
   0.250889947   0.000000000   0.000653874
   0.250536212   0.000000000   0.499332877
   0.249228837   0.500000000   0.999609133
   0.249554263   0.500000000   0.500878878
   0.749079823   0.000000000   0.000119585
   0.749556136   0.000000000   0.499894400
   0.750360074   0.500000000   0.000348923
   0.750350234   0.500000000   0.499591897
   0.000623314   0.250292086   0.000598380
   0.000264945   0.252494892   0.499887457
   0.000623314   0.749707914   0.000598380
   0.000264945   0.747505108   0.499887457
   0.499695782   0.251037378   0.000516278
   0.499468393   0.250386822   0.499401074
   0.499695782   0.748962622   0.000516278
   0.499468393   0.749613178   0.499401074
   0.000761382   0.000000000   0.249056171
   0.000024578   0.000000000   0.750897946
   0.999761096   0.500000000   0.250372904
   0.000291719   0.500000000   0.749247766
   0.499578178   0.000000000   0.250111407
   0.500169793   0.000000000   0.749766706
   0.501045684   0.500000000   0.249301314
   0.499548665   0.500000000   0.750740213
Mg28Ni4O32
   1.00000000
   8.462878658   0.000000000  -0.000205637
   0.000000000   8.461607411  -0.000000000
  -0.000205637  -0.000000000   8.462126386
  Ni  Mg  O
  4  28  32
Direct configuration=     6
   0.999371967   0.000000000   0.999754457
   0.998992464   0.000000000   0.500037957
   0.000457188   0.500000000   0.000996190
   0.249776917   0.500000000   0.249459900
   0.001352035   0.500000000   0.498897579
   0.498912106   0.000000000   0.000825732
   0.499154465   0.000000000   0.498987335
   0.499663315   0.500000000   0.000548154
   0.499466370   0.500000000   0.499518498
   0.000834852   0.249779082   0.248721896
   0.000742879   0.249201065   0.751061294
   0.000834852   0.750220918   0.248721896
   0.000742879   0.750798935   0.751061294
   0.499167758   0.249499142   0.249383187
   0.499493165   0.250310751   0.750621926
   0.499167758   0.750500858   0.249383187
   0.499493165   0.749689249   0.750621926
   0.246096194   0.000000000   0.248927916
   0.248119921   0.000000000   0.750678825
   0.247022058   0.500000000   0.750812403
   0.752336178   0.000000000   0.249537414
   0.751790558   0.000000000   0.750526038
   0.752205215   0.500000000   0.249102357
   0.752998257   0.500000000   0.750954899
   0.247510291   0.250240315   0.000964830
   0.247851884   0.249316571   0.499292316
   0.247510291   0.749759685   0.000964830
   0.247851884   0.750683429   0.499292316
   0.752558868   0.249572836   0.000613058
   0.752334002   0.250288153   0.499464565
   0.752558868   0.750427164   0.000613058
   0.752334002   0.749711847   0.499464565
   0.248081554   0.248465895   0.248991466
   0.247925203   0.249528813   0.750668234
   0.248081554   0.751534105   0.248991466
   0.247925203   0.750471187   0.750668234
   0.752021684   0.249524475   0.249287129
   0.752261133   0.249210552   0.750855070
   0.752021684   0.750475525   0.249287129
   0.752261133   0.750789448   0.750855070
   0.250535603   0.000000000   0.000566911
   0.249866714   0.000000000   0.499339289
   0.248696339   0.500000000   0.000007130
   0.249681720   0.500000000   0.500454586
   0.749336004   0.000000000   0.000174671
   0.750104789   0.000000000   0.499841653
   0.750994901   0.500000000   0.000299308
   0.750324405   0.500000000   0.499633993
   0.000711440   0.250299376   0.000713401
   0.000380313   0.252295840   0.499750151
   0.000711440   0.749700624   0.000713401
   0.000380313   0.747704160   0.499750151
   0.499576253   0.251214477   0.000620093
   0.499319110   0.250553946   0.499263704
   0.499576253   0.748785523   0.000620093
   0.499319110   0.749446054   0.499263704
   0.000596834   0.000000000   0.249010627
   0.000030034   0.000000000   0.750961704
   0.000287203   0.500000000   0.249994757
   0.000243113   0.500000000   0.749678549
   0.499589711   0.000000000   0.250098309
   0.500141990   0.000000000   0.749748572
   0.500725059   0.500000000   0.249264707
   0.499589593   0.500000000   0.750814939
Mg28Ni4O32
   1.00000000
   8.468744258   0.000000000  -0.000259059
   0.000000000   8.467133476  -0.000000000
  -0.000259059  -0.000000000   8.467786435
  Ni  Mg  O
  4  28  32
Direct configuration=     7
   0.999371316   0.000000000   0.999762952
   0.998939292   0.000000000   0.499991868
   0.000414178   0.500000000   0.000992016
   0.249816226   0.500000000   0.249525783
   0.001361613   0.500000000   0.498935210
   0.498822498   0.000000000   0.000854355
   0.499111894   0.000000000   0.498927472
   0.499802907   0.500000000   0.000455088
   0.499545155   0.500000000   0.499636305
   0.000755516   0.249902803   0.248846009
   0.000755908   0.249395177   0.750973587
   0.000755516   0.750097197   0.248846009
   0.000755908   0.750604823   0.750973587
   0.499266292   0.249366327   0.249340673
   0.499471038   0.250349603   0.750667951
   0.499266292   0.750633673   0.249340673
   0.499471038   0.749650397   0.750667951
   0.246213440   0.000000000   0.248840362
   0.248386690   0.000000000   0.750763887
   0.246991439   0.500000000   0.750727368
   0.752176387   0.000000000   0.249526737
   0.751438945   0.000000000   0.750536222
   0.752157235   0.500000000   0.249146601
   0.753073632   0.500000000   0.750898315
   0.247717680   0.250169450   0.000867781
   0.247875186   0.249323062   0.499352826
   0.247717680   0.749830550   0.000867781
   0.247875186   0.750676938   0.499352826
   0.752364496   0.249605399   0.000641576
   0.752290731   0.250498417   0.499440538
   0.752364496   0.750394601   0.000641576
   0.752290731   0.749501583   0.499440538
   0.247911800   0.248663518   0.248991246
   0.247749333   0.249383741   0.750767433
   0.247911800   0.751336482   0.248991246
   0.247749333   0.750616259   0.750767433
   0.752311008   0.249395469   0.249236678
   0.752481161   0.249206597   0.750929503
   0.752311008   0.750604531   0.249236678
   0.752481161   0.750793403   0.750929503
   0.250189760   0.000000000   0.000429935
   0.249206599   0.000000000   0.499400173
   0.248348291   0.500000000   0.000316994
   0.249753733   0.500000000   0.500099497
   0.749562273   0.000000000   0.000258985
   0.750599347   0.000000000   0.499762580
   0.751493362   0.500000000   0.000284072
   0.750392420   0.500000000   0.499656354
   0.000710382   0.250232398   0.000737097
   0.000437626   0.251961877   0.499647626
   0.000710382   0.749767602   0.000737097
   0.000437626   0.748038123   0.499647626
   0.499504563   0.251200794   0.000649119
   0.499264880   0.250594066   0.499220733
   0.499504563   0.748799206   0.000649119
   0.499264880   0.749405934   0.499220733
   0.000351378   0.000000000   0.249049441
   0.000068839   0.000000000   0.750935220
   0.000707898   0.500000000   0.249733356
   0.000238991   0.500000000   0.750005485
   0.499611954   0.000000000   0.250027643
   0.500031486   0.000000000   0.749790008
   0.500457697   0.500000000   0.249265493
   0.499627924   0.500000000   0.750843471
Mg28Ni4O32
   1.00000000
   8.478557836   0.000000000  -0.000348211
   0.000000000   8.476368188  -0.000000000
  -0.000348210  -0.000000000   8.477246020
  Ni  Mg  O
  4  28  32
Direct configuration=     8
   0.999353507   0.000000000   0.999745004
   0.998908474   0.000000000   0.499965203
   0.000384073   0.500000000   0.000975665
   0.249920326   0.500000000   0.249600770
   0.001348775   0.500000000   0.499004546
   0.498864282   0.000000000   0.000749512
   0.499157430   0.000000000   0.498990432
   0.499984718   0.500000000   0.000314660
   0.499628425   0.500000000   0.499797899
   0.000648797   0.250041324   0.249074015
   0.000602204   0.249561415   0.750843601
   0.000648797   0.749958676   0.249074015
   0.000602204   0.750438585   0.750843601
   0.499411713   0.249346946   0.249407999
   0.499567198   0.250395455   0.750612950
   0.499411713   0.750653054   0.249407999
   0.499567198   0.749604545   0.750612950
   0.246568863   0.000000000   0.248864046
   0.248790096   0.000000000   0.750773231
   0.247291475   0.500000000   0.750621289
   0.751883376   0.000000000   0.249586198
   0.750873031   0.000000000   0.750471196
   0.751873076   0.500000000   0.249202306
   0.752887756   0.500000000   0.750836387
   0.248127439   0.250123532   0.000702840
   0.248129834   0.249348051   0.499414867
   0.248127439   0.749876468   0.000702840
   0.248129834   0.750651949   0.499414867
   0.751972601   0.249648606   0.000534494
   0.751989130   0.250625611   0.499541562
   0.751972601   0.750351394   0.000534494
   0.751989130   0.749374389   0.499541562
   0.248008498   0.248996111   0.249117707
   0.247851511   0.249368631   0.750811878
   0.248008498   0.751003889   0.249117707
   0.247851511   0.750631369   0.750811878
   0.752387414   0.249424095   0.249286694
   0.752427669   0.249412838   0.750895533
   0.752387414   0.750575905   0.249286694
   0.752427669   0.750587162   0.750895533
   0.249755294   0.000000000   0.000209930
   0.248300008   0.000000000   0.499517802
   0.248063080   0.500000000   0.000615907
   0.249760981   0.500000000   0.499744287
   0.749777278   0.000000000   0.000416619
   0.751194000   0.000000000   0.499617022
   0.752041783   0.500000000   0.000333232
   0.750644384   0.500000000   0.499636771
   0.000620945   0.250040974   0.000679130
   0.000453332   0.251452061   0.499545827
   0.000620945   0.749959026   0.000679130
   0.000453332   0.748547939   0.499545827
   0.499456566   0.250981355   0.000614220
   0.499293329   0.250487577   0.499260059
   0.499456566   0.749018645   0.000614220
   0.499293329   0.749512423   0.499260059
   0.999936559   0.000000000   0.249156593
   0.000156835   0.000000000   0.750830399
   0.001157333   0.500000000   0.249546677
   0.000319630   0.500000000   0.750279374
   0.499624029   0.000000000   0.249861431
   0.499773490   0.000000000   0.749907630
   0.500223317   0.500000000   0.249272236
   0.499657958   0.500000000   0.750868992
Mg28Ni4O32
   1.00000000
   8.490082616   0.000000000  -0.000452986
  -0.000000000   8.487200666  -0.000000000
  -0.000452984  -0.000000000   8.488344269
  Ni  Mg  O
  4  28  32
Direct configuration=     9
   0.999299305   0.000000000   0.999683907
   0.998920313   0.000000000   0.499997557
   0.000426615   0.500000000   0.000975938
   0.250059988   0.500000000   0.249618315
   0.001337668   0.500000000   0.499057162
   0.499092662   0.000000000   0.000496035
   0.499308140   0.000000000   0.499208251
   0.500094217   0.500000000   0.000212269
   0.499644272   0.500000000   0.499900084
   0.000588977   0.250091524   0.249294230
   0.000281939   0.249524085   0.750753663
   0.000588977   0.749908476   0.249294230
   0.000281939   0.750475915   0.750753663
   0.499520911   0.249547630   0.249613613
   0.499792953   0.250427387   0.750424706
   0.499520911   0.750452370   0.249613613
   0.499792953   0.749572613   0.750424706
   0.247001695   0.000000000   0.249052127
   0.249078529   0.000000000   0.750645699
   0.247918973   0.500000000   0.750578248
   0.751617528   0.000000000   0.249720158
   0.750387456   0.000000000   0.750325537
   0.751422660   0.500000000   0.249222153
   0.752433116   0.500000000   0.750832260
   0.248541538   0.250162872   0.000555850
   0.248567011   0.249372862   0.499422631
   0.248541538   0.749837128   0.000555850
   0.248567011   0.750627138   0.499422631
   0.751570467   0.249664649   0.000279742
   0.751494173   0.250505320   0.499780393
   0.751570467   0.750335351   0.000279742
   0.751494173   0.749494680   0.499780393
   0.248513678   0.249287417   0.249366979
   0.248376367   0.249616430   0.750722025
   0.248513678   0.750712583   0.249366979
   0.248376367   0.750383570   0.750722025
   0.752016551   0.249735518   0.249476926
   0.751914323   0.249837161   0.750693869
   0.752016551   0.750264482   0.249476926
   0.751914323   0.750162839   0.750693869
   0.249501136   0.000000000   0.000026901
   0.247646351   0.000000000   0.499630497
   0.248111155   0.500000000   0.000659328
   0.249653666   0.500000000   0.499683470
   0.749771039   0.000000000   0.000569919
   0.751482707   0.000000000   0.499478493
   0.752265064   0.500000000   0.000469618
   0.751044859   0.500000000   0.499550774
   0.000444413   0.249760273   0.000523021
   0.000382145   0.251060395   0.499528683
   0.000444413   0.750239727   0.000523021
   0.000382145   0.748939605   0.499528683
   0.499494583   0.250575759   0.000491485
   0.499451604   0.250185632   0.499419442
   0.499494583   0.749424241   0.000491485
   0.499451604   0.749814368   0.499419442
   0.999544693   0.000000000   0.249277904
   0.000242063   0.000000000   0.750683155
   0.001322267   0.500000000   0.249650296
   0.000507383   0.500000000   0.750226413
   0.499588254   0.000000000   0.249664892
   0.499456615   0.000000000   0.750052673
   0.500264233   0.500000000   0.249269964
   0.499652113   0.500000000   0.750885489
Mg28Ni4O32
   1.00000000
   8.498397823  -0.000000000  -0.000529429
  -0.000000000   8.495001274  -0.000000000
  -0.000529425  -0.000000000   8.496339848
  Ni  Mg  O
  4  28  32
Direct configuration=     10
   0.999236634   0.000000000   0.999610925
   0.998978375   0.000000000   0.500077639
   0.000539039   0.500000000   0.000990725
   0.250156628   0.500000000   0.249560876
   0.001328546   0.500000000   0.499072906
   0.499394081   0.000000000   0.000228712
   0.499483109   0.000000000   0.499469204
   0.500054108   0.500000000   0.000219207
   0.499581725   0.500000000   0.499868528
   0.000605580   0.250006961   0.249383363
   0.999977607   0.249282577   0.750748474
   0.000605580   0.749993039   0.249383363
   0.999977607   0.750717423   0.750748474
   0.499537931   0.249879333   0.249850663
   0.500019591   0.250422483   0.750197449
   0.499537931   0.750120667   0.249850663
   0.500019591   0.749577517   0.750197449
   0.247280542   0.000000000   0.249315654
   0.249051711   0.000000000   0.750433436
   0.248561116   0.500000000   0.750628323
   0.751520618   0.000000000   0.249858276
   0.750281443   0.000000000   0.750171569
   0.751057328   0.500000000   0.249206473
   0.751945661   0.500000000   0.750884880
   0.248724075   0.250267096   0.000506028
   0.248951193   0.249388094   0.499380451
   0.248724075   0.749732904   0.000506028
   0.248951193   0.750611906   0.499380451
   0.751383136   0.249639525   0.000024011
   0.751075436   0.250180196   0.500021939
   0.751383136   0.750360475   0.000024011
   0.751075436   0.749819804   0.500021939
   0.249216791   0.249361717   0.249615502
   0.249104872   0.250033149   0.750514929
   0.249216791   0.750638283   0.249615502
   0.249104872   0.749966851   0.750514929
   0.751311455   0.250200558   0.249722073
   0.751134300   0.250250496   0.750409430
   0.751311455   0.749799442   0.249722073
   0.751134300   0.749749504   0.750409430
   0.249599741   0.000000000   0.000006082
   0.247707698   0.000000000   0.499666012
   0.248550814   0.500000000   0.000383399
   0.249515987   0.500000000   0.499999153
   0.749499046   0.000000000   0.000589695
   0.751197879   0.000000000   0.499465494
   0.751954269   0.500000000   0.000613282
   0.751347562   0.500000000   0.499454132
   0.000264209   0.249537303   0.000339177
   0.000246830   0.251027160   0.499633425
   0.000264209   0.750462697   0.000339177
   0.000246830   0.748972840   0.499633425
   0.499627157   0.250207043   0.000329478
   0.499677340   0.249827385   0.499636591
   0.499627157   0.749792957   0.000329478
   0.499677340   0.750172615   0.499636591
   0.999422915   0.000000000   0.249336534
   0.000232916   0.000000000   0.750573254
   0.001068288   0.500000000   0.250023501
   0.000704948   0.500000000   0.749831582
   0.499511395   0.000000000   0.249580316
   0.499288140   0.000000000   0.750114033
   0.500602726   0.500000000   0.249268969
   0.499630006   0.500000000   0.750871262
Mg28Ni4O32
   1.00000000
   8.500600542  -0.000000000  -0.000551420
  -0.000000000   8.497050204  -0.000000000
  -0.000551416  -0.000000000   8.498445180
  Ni  Mg  O
  4  28  32
Direct configuration=     11
   0.999220466   0.000000000   0.999584580
   0.999047996   0.000000000   0.500134556
   0.000626427   0.500000000   0.000983307
   0.250163714   0.500000000   0.249502933