Mg28Ni4O32
   1.00000000
   8.440357712  -0.000000000   0.000000000
  -0.000000000   8.440357712   0.000000000
   0.000000000   0.000000000   8.440342738
  Ni  Mg  O
  4  28  32
Direct configuration=     1
   0.000000000   0.000000000   0.000000000
   0.000000000   0.000000000   0.500000000
   0.500000000   0.500000000   0.000000000
   0.500000000   0.500000000   0.500000000
   0.000000000   0.500000000   0.000000000
   0.000000000   0.500000000   0.500000000
   0.500000000   0.000000000   0.000000000
   0.500000000   0.000000000   0.500000000
   0.000000000   0.249765420   0.250000000
   0.000000000   0.249765420   0.750000000
   0.000000000   0.750234580   0.250000000
   0.000000000   0.750234580   0.750000000
   0.500000000   0.250234580   0.250000000
   0.500000000   0.250234580   0.750000000
   0.500000000   0.749765420   0.250000000
   0.500000000   0.749765420   0.750000000
   0.249765420   0.000000000   0.250000000
   0.249765420   0.000000000   0.750000000
   0.250234580   0.500000000   0.250000000
   0.250234580   0.500000000   0.750000000
   0.750234580   0.000000000   0.250000000
   0.750234580   0.000000000   0.750000000
   0.749765420   0.500000000   0.250000000
   0.749765420   0.500000000   0.750000000
   0.250000000   0.250000000   0.000000000
   0.250000000   0.250000000   0.500000000
   0.250000000   0.750000000   0.000000000
   0.250000000   0.750000000   0.500000000
   0.750000000   0.250000000   0.000000000
   0.750000000   0.250000000   0.500000000
   0.750000000   0.750000000   0.000000000
   0.750000000   0.750000000   0.500000000
   0.250000000   0.250000000   0.250000000
   0.250000000   0.250000000   0.750000000
   0.250000000   0.750000000   0.250000000
   0.250000000   0.750000000   0.750000000
   0.750000000   0.250000000   0.250000000
   0.750000000   0.250000000   0.750000000
   0.750000000   0.750000000   0.250000000
   0.750000000   0.750000000   0.750000000
   0.250255262   0.000000000   0.000000000
   0.250255262   0.000000000   0.500000000
   0.249744738   0.500000000   0.000000000
   0.249744738   0.500000000   0.500000000
   0.749744738   0.000000000   0.000000000
   0.749744738   0.000000000   0.500000000
   0.750255262   0.500000000   0.000000000
   0.750255262   0.500000000   0.500000000
   0.000000000   0.250255262   0.000000000
   0.000000000   0.250255262   0.500000000
   0.000000000   0.749744738   0.000000000
   0.000000000   0.749744738   0.500000000
   0.500000000   0.249744738   0.000000000
   0.500000000   0.249744738   0.500000000
   0.500000000   0.750255262   0.000000000
   0.500000000   0.750255262   0.500000000
   0.000000000   0.000000000   0.250000000
   0.000000000   0.000000000   0.750000000
   0.000000000   0.500000000   0.250000000
   0.000000000   0.500000000   0.750000000
   0.500000000   0.000000000   0.250000000
   0.500000000   0.000000000   0.750000000
   0.500000000   0.500000000   0.250000000
   0.500000000   0.500000000   0.750000000
Mg28Ni4O32
   1.00000000
   8.442014207   0.000000000   0.000000000
   0.000000000   8.442014207   0.000000000
   0.000000000   0.000000000   8.441931439
  Ni  Mg  O
  4  28  32
Direct configuration=     2
   0.000000000   0.000000000   0.000000000
   0.000000000   0.000000000   0.500000000
   0.500000000   0.500000000   0.000000000
   0.500000000   0.500000000   0.500000000
   0.000000000   0.500000000   0.000000000
   0.000000000   0.500000000   0.500000000
   0.500000000   0.000000000   0.000000000
   0.500000000   0.000000000   0.500000000
   0.000000000   0.248946472   0.250000000
   0.000000000   0.248946472   0.750000000
   0.000000000   0.751053528   0.250000000
   0.000000000   0.751053528   0.750000000
   0.500000000   0.251053528   0.250000000
   0.500000000   0.251053528   0.750000000
   0.500000000   0.748946472   0.250000000
   0.500000000   0.748946472   0.750000000
   0.248946472   0.000000000   0.250000000
   0.248946472   0.000000000   0.750000000
   0.251053528   0.500000000   0.250000000
   0.251053528   0.500000000   0.750000000
   0.751053528   0.000000000   0.250000000
   0.751053528   0.000000000   0.750000000
   0.748946472   0.500000000   0.250000000
   0.748946472   0.500000000   0.750000000
   0.250000000   0.250000000   0.000000000
   0.250000000   0.250000000   0.500000000
   0.250000000   0.750000000   0.000000000
   0.250000000   0.750000000   0.500000000
   0.750000000   0.250000000   0.000000000
   0.750000000   0.250000000   0.500000000
   0.750000000   0.750000000   0.000000000
   0.750000000   0.750000000   0.500000000
   0.250000000   0.250000000   0.250000000
   0.250000000   0.250000000   0.750000000
   0.250000000   0.750000000   0.250000000
   0.250000000   0.750000000   0.750000000
   0.750000000   0.250000000   0.250000000
   0.750000000   0.250000000   0.750000000
   0.750000000   0.750000000   0.250000000
   0.750000000   0.750000000   0.750000000
   0.251163097   0.000000000   0.000000000
   0.251163097   0.000000000   0.500000000
   0.248836903   0.500000000   0.000000000
   0.248836903   0.500000000   0.500000000
   0.748836903   0.000000000   0.000000000
   0.748836903   0.000000000   0.500000000
   0.751163097   0.500000000   0.000000000
   0.751163097   0.500000000   0.500000000
   0.000000000   0.251163097   0.000000000
   0.000000000   0.251163097   0.500000000
   0.000000000   0.748836903   0.000000000
   0.000000000   0.748836903   0.500000000
   0.500000000   0.248836903   0.000000000
   0.500000000   0.248836903   0.500000000
   0.500000000   0.751163097   0.000000000
   0.500000000   0.751163097   0.500000000
   0.000000000   0.000000000   0.250000000
   0.000000000   0.000000000   0.750000000
   0.000000000   0.500000000   0.250000000
   0.000000000   0.500000000   0.750000000
   0.500000000   0.000000000   0.250000000
   0.500000000   0.000000000   0.750000000
   0.500000000   0.500000000   0.250000000
   0.500000000   0.500000000   0.750000000
Mg28Ni4O32
   1.00000000
   8.442516236   0.000000000   0.000000000
   0.000000000   8.442516236   0.000000000
   0.000000000   0.000000000   8.442412921
  Ni  Mg  O
  4  28  32
Direct configuration=     3
   0.000000000   0.000000000   0.000000000
   0.000000000   0.000000000   0.500000000
   0.500000000   0.500000000   0.000000000
   0.500000000   0.500000000   0.500000000
   0.000000000   0.500000000   0.000000000
   0.000000000   0.500000000   0.500000000
   0.500000000   0.000000000   0.000000000
   0.500000000   0.000000000   0.500000000
   0.000000000   0.248910527   0.250000000
   0.000000000   0.248910527   0.750000000
   0.000000000   0.751089473   0.250000000
   0.000000000   0.751089473   0.750000000
   0.500000000   0.251089473   0.250000000
   0.500000000   0.251089473   0.750000000
   0.500000000   0.748910527   0.250000000
   0.500000000   0.748910527   0.750000000
   0.248910527   0.000000000   0.250000000
   0.248910527   0.000000000   0.750000000
   0.251089473   0.500000000   0.250000000
   0.251089473   0.500000000   0.750000000
   0.751089473   0.000000000   0.250000000
   0.751089473   0.000000000   0.750000000
   0.748910527   0.500000000   0.250000000
   0.748910527   0.500000000   0.750000000
   0.250000000   0.250000000   0.000000000
   0.250000000   0.250000000   0.500000000
   0.250000000   0.750000000   0.000000000
   0.250000000   0.750000000   0.500000000
   0.750000000   0.250000000   0.000000000
   0.750000000   0.250000000   0.500000000
   0.750000000   0.750000000   0.000000000
   0.750000000   0.750000000   0.500000000
   0.250000000   0.250000000   0.250000000
   0.250000000   0.250000000   0.750000000
   0.250000000   0.750000000   0.250000000
   0.250000000   0.750000000   0.750000000
   0.750000000   0.250000000   0.250000000
   0.750000000   0.250000000   0.750000000
   0.750000000   0.750000000   0.250000000
   0.750000000   0.750000000   0.750000000
   0.251217418   0.000000000   0.000000000
   0.251217418   0.000000000   0.500000000
   0.248782582   0.500000000   0.000000000
   0.248782582   0.500000000   0.500000000
   0.748782582   0.000000000   0.000000000
   0.748782582   0.000000000   0.500000000
   0.751217418   0.500000000   0.000000000
   0.751217418   0.500000000   0.500000000
   0.000000000   0.251217418   0.000000000
   0.000000000   0.251217418   0.500000000
   0.000000000   0.748782582   0.000000000
   0.000000000   0.748782582   0.500000000
   0.500000000   0.248782582   0.000000000
   0.500000000   0.248782582   0.500000000
   0.500000000   0.751217418   0.000000000
   0.500000000   0.751217418   0.500000000
   0.000000000   0.000000000   0.250000000
   0.000000000   0.000000000   0.750000000
   0.000000000   0.500000000   0.250000000
   0.000000000   0.500000000   0.750000000
   0.500000000   0.000000000   0.250000000
   0.500000000   0.000000000   0.750000000
   0.500000000   0.500000000   0.250000000
   0.500000000   0.500000000   0.750000000
Mg28Ni4O32
   1.00000000
   8.456372506   0.000000000   0.000000000
   0.000000000   8.456372506   0.000000000
   0.000000000   0.000000000   8.455699932
  Ni  Mg  O
  4  28  32
Direct configuration=     4
   0.000000000   0.000000000   0.000000000
   0.000000000   0.000000000   0.500000000
   0.500000000   0.500000000   0.000000000
   0.500000000   0.500000000   0.500000000
   0.000000000   0.500000000   0.000000000
   0.000000000   0.500000000   0.500000000
   0.500000000   0.000000000   0.000000000
   0.500000000   0.000000000   0.500000000
   0.000000000   0.248539974   0.250000000
   0.000000000   0.248539974   0.750000000
   0.000000000   0.751460026   0.250000000
   0.000000000   0.751460026   0.750000000
   0.500000000   0.251460026   0.250000000
   0.500000000   0.251460026   0.750000000
   0.500000000   0.748539974   0.250000000
   0.500000000   0.748539974   0.750000000
   0.248539974   0.000000000   0.250000000
   0.248539974   0.000000000   0.750000000
   0.251460026   0.500000000   0.250000000
   0.251460026   0.500000000   0.750000000
   0.751460026   0.000000000   0.250000000
   0.751460026   0.000000000   0.750000000
   0.748539974   0.500000000   0.250000000
   0.748539974   0.500000000   0.750000000
   0.250000000   0.250000000   0.000000000
   0.250000000   0.250000000   0.500000000
   0.250000000   0.750000000   0.000000000
   0.250000000   0.750000000   0.500000000
   0.750000000   0.250000000   0.000000000
   0.750000000   0.250000000   0.500000000
   0.750000000   0.750000000   0.000000000
   0.750000000   0.750000000   0.500000000
   0.250000000   0.250000000   0.250000000
   0.250000000   0.250000000   0.750000000
   0.250000000   0.750000000   0.250000000
   0.250000000   0.750000000   0.750000000
   0.750000000   0.250000000   0.250000000
   0.750000000   0.250000000   0.750000000
   0.750000000   0.750000000   0.250000000
   0.750000000   0.750000000   0.750000000
   0.252031493   0.000000000   0.000000000
   0.252031493   0.000000000   0.500000000
   0.247968507   0.500000000   0.000000000
   0.247968507   0.500000000   0.500000000
   0.747968507   0.000000000   0.000000000
   0.747968507   0.000000000   0.500000000
   0.752031493   0.500000000   0.000000000
   0.752031493   0.500000000   0.500000000
   0.000000000   0.252031493   0.000000000
   0.000000000   0.252031493   0.500000000
   0.000000000   0.747968507   0.000000000
   0.000000000   0.747968507   0.500000000
   0.500000000   0.247968507   0.000000000
   0.500000000   0.247968507   0.500000000
   0.500000000   0.752031493   0.000000000
   0.500000000   0.752031493   0.500000000
   0.000000000   0.000000000   0.250000000
   0.000000000   0.000000000   0.750000000
   0.000000000   0.500000000   0.250000000
   0.000000000   0.500000000   0.750000000
   0.500000000   0.000000000   0.250000000
   0.500000000   0.000000000   0.750000000
   0.500000000   0.500000000   0.250000000
   0.500000000   0.500000000   0.750000000
Mg28Ni4O32
   1.00000000
   8.473156395   0.000000000   0.000000000
   0.000000000   8.473156395   0.000000000
   0.000000000   0.000000000   8.471789236
  Ni  Mg  O
  4  28  32
Direct configuration=     5
   0.000000000   0.000000000   1.000000000
   0.000000000   0.000000000   0.500000000
   0.500000000   0.500000000   0.000000000
   0.500000000   0.500000000   0.500000000
   0.000000000   0.500000000   0.000000000
   0.000000000   0.500000000   0.500000000
   0.500000000   0.000000000   0.000000000
   0.500000000   0.000000000   0.500000000
   0.000000000   0.248598694   0.250000000
   0.000000000   0.248598694   0.750000000
   0.000000000   0.751401306   0.250000000
   0.000000000   0.751401306   0.750000000
   0.500000000   0.251401306   0.250000000
   0.500000000   0.251401306   0.750000000
   0.500000000   0.748598694   0.250000000
   0.500000000   0.748598694   0.750000000
   0.248598694   0.000000000   0.250000000
   0.248598694   0.000000000   0.750000000
   0.251401306   0.500000000   0.250000000
   0.251401306   0.500000000   0.750000000
   0.751401306   0.000000000   0.250000000
   0.751401306   0.000000000   0.750000000
   0.748598694   0.500000000   0.250000000
   0.748598694   0.500000000   0.750000000
   0.250000000   0.250000000   0.000000000
   0.250000000   0.250000000   0.500000000
   0.250000000   0.750000000   0.000000000
   0.250000000   0.750000000   0.500000000
   0.750000000   0.250000000   0.000000000
   0.750000000   0.250000000   0.500000000
   0.750000000   0.750000000   0.000000000
   0.750000000   0.750000000   0.500000000
   0.250000000   0.250000000   0.250000000
   0.250000000   0.250000000   0.750000000
   0.250000000   0.750000000   0.250000000
   0.250000000   0.750000000   0.750000000
   0.750000000   0.250000000   0.250000000
   0.750000000   0.250000000   0.750000000
   0.750000000   0.750000000   0.250000000
   0.750000000   0.750000000   0.750000000
   0.252401647   0.000000000   1.000000000
   0.252401647   0.000000000   0.500000000
   0.247598353   0.500000000   0.000000000
   0.247598353   0.500000000   0.500000000
   0.747598353   0.000000000   1.000000000
   0.747598353   0.000000000   0.500000000
   0.752401647   0.500000000   1.000000000
   0.752401647   0.500000000   0.500000000
   0.000000000   0.252401647   0.000000000
   0.000000000   0.252401647   0.500000000
   0.000000000   0.747598353   0.000000000
   0.000000000   0.747598353   0.500000000
   0.500000000   0.247598353   1.000000000
   0.500000000   0.247598353   0.500000000
   0.500000000   0.752401647   1.000000000
   0.500000000   0.752401647   0.500000000
   0.000000000   0.000000000   0.250000000
   0.000000000   0.000000000   0.750000000
   0.000000000   0.500000000   0.250000000
   0.000000000   0.500000000   0.750000000
   0.500000000   0.000000000   0.250000000
   0.500000000   0.000000000   0.750000000
   0.500000000   0.500000000   0.250000000
   0.500000000   0.500000000   0.750000000
Mg28Ni4O32
   1.00000000
   8.494094886   0.000000000   0.000000000
   0.000000000   8.494094886  -0.000000000
   0.000000000  -0.000000000   8.491851079
  Ni  Mg  O
  4  28  32
Direct configuration=     6
   0.000000000   0.000000000   1.000000000
   0.000000000   0.000000000   0.500000000
   0.500000000   0.500000000   1.000000000
   0.500000000   0.500000000   0.500000000
   0.000000000   0.500000000   1.000000000
   0.000000000   0.500000000   0.500000000
   0.500000000   0.000000000   1.000000000
   0.500000000   0.000000000   0.500000000
   0.000000000   0.249103707   0.250000000
   0.000000000   0.249103707   0.750000000
   0.000000000   0.750896293   0.250000000
   0.000000000   0.750896293   0.750000000
   0.500000000   0.250896293   0.250000000
   0.500000000   0.250896293   0.750000000
   0.500000000   0.749103707   0.250000000
   0.500000000   0.749103707   0.750000000
   0.249103707   0.000000000   0.250000000
   0.249103707   0.000000000   0.750000000
   0.250896293   0.500000000   0.250000000
   0.250896293   0.500000000   0.750000000
   0.750896293   0.000000000   0.250000000
   0.750896293   0.000000000   0.750000000
   0.749103707   0.500000000   0.250000000
   0.749103707   0.500000000   0.750000000
   0.250000000   0.250000000   1.000000000
   0.250000000   0.250000000   0.500000000
   0.250000000   0.750000000   1.000000000
   0.250000000   0.750000000   0.500000000
   0.750000000   0.250000000   1.000000000
   0.750000000   0.250000000   0.500000000
   0.750000000   0.750000000   1.000000000
   0.750000000   0.750000000   0.500000000
   0.250000000   0.250000000   0.250000000
   0.250000000   0.250000000   0.750000000
   0.250000000   0.750000000   0.250000000
   0.250000000   0.750000000   0.750000000
   0.750000000   0.250000000   0.250000000
   0.750000000   0.250000000   0.750000000
   0.750000000   0.750000000   0.250000000
   0.750000000   0.750000000   0.750000000
   0.252238954   0.000000000   1.000000000
   0.252238954   0.000000000   0.500000000
   0.247761046   0.500000000   1.000000000
   0.247761046   0.500000000   0.500000000
   0.747761046   0.000000000   1.000000000
   0.747761046   0.000000000   0.500000000
   0.752238954   0.500000000   1.000000000
   0.752238954   0.500000000   0.500000000
   0.000000000   0.252238954   1.000000000
   0.000000000   0.252238954   0.500000000
   0.000000000   0.747761046   1.000000000
   0.000000000   0.747761046   0.500000000
   0.500000000   0.247761046   1.000000000
   0.500000000   0.247761046   0.500000000
   0.500000000   0.752238954   1.000000000
   0.500000000   0.752238954   0.500000000
   0.000000000   0.000000000   0.250000000
   0.000000000   0.000000000   0.750000000
   0.000000000   0.500000000   0.250000000
   0.000000000   0.500000000   0.750000000
   0.500000000   0.000000000   0.250000000
   0.500000000   0.000000000   0.750000000
   0.500000000   0.500000000   0.250000000
   0.500000000   0.500000000   0.750000000
Mg28Ni4O32
   1.00000000
   8.501330315   0.000000000   0.000000000
   0.000000000   8.501330315  -0.000000000
   0.000000000  -0.000000000   8.498770122
  Ni  Mg  O
  4  28  32
Direct configuration=     7
   0.000000000   0.000000000   1.000000000
   0.000000000   0.000000000   0.500000000
   0.500000000   0.500000000   1.000000000
   0.500000000   0.500000000   0.500000000
   0.000000000   0.500000000   1.000000000
   0.000000000   0.500000000   0.500000000
   0.500000000   0.000000000   1.000000000
   0.500000000   0.000000000   0.500000000
   0.000000000   0.249509912   0.250000000
   0.000000000   0.249509912   0.750000000
   0.000000000   0.750490088   0.250000000
   0.000000000   0.750490088   0.750000000
   0.500000000   0.250490088   0.250000000
   0.500000000   0.250490088   0.750000000
   0.500000000   0.749509912   0.250000000
   0.500000000   0.749509912   0.750000000
   0.249509912   0.000000000   0.250000000
   0.249509912   0.000000000   0.750000000
   0.250490088   0.500000000   0.250000000
   0.250490088   0.500000000   0.750000000
   0.750490088   0.000000000   0.250000000
   0.750490088   0.000000000   0.750000000
   0.749509912   0.500000000   0.250000000
   0.749509912   0.500000000   0.750000000
   0.250000000   0.250000000   1.000000000
   0.250000000   0.250000000   0.500000000
   0.250000000   0.750000000   1.000000000
   0.250000000   0.750000000   0.500000000
   0.750000000   0.250000000   1.000000000
   0.750000000   0.250000000   0.500000000
   0.750000000   0.750000000   1.000000000
   0.750000000   0.750000000   0.500000000
   0.250000000   0.250000000   0.250000000
   0.250000000   0.250000000   0.750000000
   0.250000000   0.750000000   0.250000000
   0.250000000   0.750000000   0.750000000
   0.750000000   0.250000000   0.250000000
   0.750000000   0.250000000   0.750000000
   0.750000000   0.750000000   0.250000000
   0.750000000   0.750000000   0.750000000
   0.251712434   0.000000000   1.000000000
   0.251712434   0.000000000   0.500000000
   0.248287566   0.500000000   1.000000000
   0.248287566   0.500000000   0.500000000
   0.748287566   0.000000000   1.000000000
   0.748287566   0.000000000   0.500000000
   0.751712434   0.500000000   1.000000000
   0.751712434   0.500000000   0.500000000
   0.000000000   0.251712434   1.000000000
   0.000000000   0.251712434   0.500000000
   0.000000000   0.748287566   1.000000000
   0.000000000   0.748287566   0.500000000
   0.500000000   0.248287566   1.000000000
   0.500000000   0.248287566   0.500000000
   0.500000000   0.751712434   1.000000000
   0.500000000   0.751712434   0.500000000
   0.000000000   0.000000000   0.250000000
   0.000000000   0.000000000   0.750000000
   0.000000000   0.500000000   0.250000000
   0.000000000   0.500000000   0.750000000
   0.500000000   0.000000000   0.250000000
   0.500000000   0.000000000   0.750000000
   0.500000000   0.500000000   0.250000000
   0.500000000   0.500000000   0.750000000
Mg28Ni4O32
   1.00000000
   8.501417293   0.000000000   0.000000000
   0.000000000   8.501417293  -0.000000000
   0.000000000  -0.000000000   8.498835162
  Ni  Mg  O
  4  28  32
Direct configuration=     8
   0.000000000   0.000000000   1.000000000
   0.000000000   0.000000000   0.500000000
   0.500000000   0.500000000   1.000000000
   0.500000000   0.500000000   0.500000000
   0.000000000   0.500000000   1.000000000
   0.000000000   0.500000000   0.500000000
   0.500000000   0.000000000   1.000000000
   0.500000000   0.000000000   0.500000000
   0.000000000   0.249602053   0.250000000
   0.000000000   0.249602053   0.750000000
   0.000000000   0.750397947   0.250000000
   0.000000000   0.750397947   0.750000000
   0.500000000   0.250397947   0.250000000
   0.500000000   0.250397947   0.750000000
   0.500000000   0.749602053   0.250000000
   0.500000000   0.749602053   0.750000000
   0.249602053   1.000000000   0.250000000
   0.249602053   0.000000000   0.750000000
   0.250397947   0.500000000   0.250000000
   0.250397947   0.500000000   0.750000000
   0.750397947   1.000000000   0.250000000
   0.750397947   0.000000000   0.750000000
   0.749602053   0.500000000   0.250000000
   0.749602053   0.500000000   0.750000000
   0.250000000   0.250000000   1.000000000
   0.250000000   0.250000000   0.500000000
   0.250000000   0.750000000   1.000000000
   0.250000000   0.750000000   0.500000000
   0.750000000   0.250000000   1.000000000
   0.750000000   0.250000000   0.500000000
   0.750000000   0.750000000   1.000000000
   0.750000000   0.750000000   0.500000000
   0.250000000   0.250000000   0.250000000
   0.250000000   0.250000000   0.750000000
   0.250000000   0.750000000   0.250000000
   0.250000000   0.750000000   0.750000000
   0.750000000   0.250000000   0.250000000
   0.750000000   0.250000000   0.750000000
   0.750000000   0.750000000   0.250000000
   0.750000000   0.750000000   0.750000000
   0.251331982   1.000000000   1.000000000
   0.251331982   0.000000000   0.500000000
   0.248668018   0.500000000   1.000000000
   0.248668018   0.500000000   0.500000000
   0.748668018   0.000000000   1.000000000
   0.748668018   0.000000000   0.500000000
   0.751331982   0.500000000   1.000000000
   0.751331982   0.500000000   0.500000000
   1.000000000   0.251331982   1.000000000
   1.000000000   0.251331982   0.500000000
   0.000000000   0.748668018   1.000000000
   0.000000000   0.748668018   0.500000000
   0.500000000   0.248668018   1.000000000
   0.500000000   0.248668018   0.500000000
   0.500000000   0.751331982   1.000000000
   0.500000000   0.751331982   0.500000000
   1.000000000   1.000000000   0.250000000
   0.000000000   1.000000000   0.750000000
   0.000000000   0.500000000   0.250000000
   0.000000000   0.500000000   0.750000000
   0.500000000   0.000000000   0.250000000
   0.500000000   0.000000000   0.750000000
   0.500000000   0.500000000   0.250000000
   0.500000000   0.500000000   0.750000000
Mg28Ni4O32
   1.00000000
   8.500727674   0.000000000   0.000000000
   0.000000000   8.500727674  -0.000000000
   0.000000000  -0.000000000   8.498152072
  Ni  Mg  O
  4  28  32
Direct configuration=     9
   0.000000000   1.000000000   1.000000000
   0.000000000   1.000000000   0.500000000
   0.500000000   0.500000000   1.000000000
   0.500000000   0.500000000   0.500000000
   0.000000000   0.500000000   1.000000000
   0.000000000   0.500000000   0.500000000
   0.500000000   0.000000000   1.000000000
   0.500000000   1.000000000   0.500000000
   1.000000000   0.249523204   0.250000000
   1.000000000   0.249523204   0.750000000
   1.000000000   0.750476796   0.250000000
   1.000000000   0.750476796   0.750000000
   0.500000000   0.250476796   0.250000000
   0.500000000   0.250476796   0.750000000
   0.500000000   0.749523204   0.250000000
   0.500000000   0.749523204   0.750000000
   0.249523204   1.000000000   0.250000000
   0.249523204   1.000000000   0.750000000
   0.250476796   0.500000000   0.250000000
   0.250476796   0.500000000   0.750000000
   0.750476796   1.000000000   0.250000000
   0.750476796   1.000000000   0.750000000
   0.749523204   0.500000000   0.250000000
   0.749523204   0.500000000   0.750000000
   0.250000000   0.250000000   1.000000000
   0.250000000   0.250000000   0.500000000
   0.250000000   0.750000000   1.000000000
   0.250000000   0.750000000   0.500000000
   0.750000000   0.250000000   1.000000000
   0.750000000   0.250000000   0.500000000
   0.750000000   0.750000000   1.000000000
   0.750000000   0.750000000   0.500000000
   0.250000000   0.250000000   0.250000000
   0.250000000   0.250000000   0.750000000
   0.250000000   0.750000000   0.250000000
   0.250000000   0.750000000   0.750000000
   0.750000000   0.250000000   0.250000000
   0.750000000   0.250000000   0.750000000
   0.750000000   0.750000000   0.250000000
   0.750000000   0.750000000   0.750000000
   0.251100386   1.000000000   1.000000000
   0.251100386   1.000000000   0.500000000
   0.248899614   0.500000000   1.000000000
   0.248899614   0.500000000   0.500000000
   0.748899614   1.000000000   1.000000000
   0.748899614   1.000000000   0.500000000
   0.751100386   0.500000000   1.000000000
   0.751100386   0.500000000   0.500000000
   1.000000000   0.251100386   1.000000000
   1.000000000   0.251100386   0.500000000
   1.000000000   0.748899614   1.000000000
   1.000000000   0.748899614   0.500000000
   0.500000000   0.248899614   1.000000000
   0.500000000   0.248899614   0.500000000
   0.500000000   0.751100386   1.000000000
   0.500000000   0.751100386   0.500000000
   1.000000000   1.000000000   0.250000000
   1.000000000   1.000000000   0.750000000
   0.000000000   0.500000000   0.250000000
   0.000000000   0.500000000   0.750000000
   0.500000000   1.000000000   0.250000000
   0.500000000   1.000000000   0.750000000
   0.500000000   0.500000000   0.250000000
   0.500000000   0.500000000   0.750000000
Mg28Ni4O32
   1.00000000
   8.500543036   0.000000000   0.000000000
   0.000000000   8.500543036  -0.000000000
   0.000000000  -0.000000000   8.497937691
  Ni  Mg  O
  4  28  32
Direct configuration=     10
   1.000000000   1.000000000   1.000000000
   1.000000000   1.000000000   0.500000000
   0.500000000   0.500000000   1.000000000
   0.500000000   0.500000000   0.500000000
   1.000000000   0.500000000   1.000000000
   1.000000000   0.500000000   0.500000000
   0.500000000   1.000000000   1.000000000
   0.500000000   1.000000000   0.500000000
   1.000000000   0.249311473   0.250000000
   1.000000000   0.249311473   0.750000000
   1.000000000   0.750688527   0.250000000
   1.000000000   0.750688527   0.750000000
   0.500000000   0.250688527   0.250000000
   0.500000000   0.250688527   0.750000000
   0.500000000   0.749311473   0.250000000
   0.500000000   0.749311473   0.750000000
   0.249311473   1.000000000   0.250000000
   0.249311473   1.000000000   0.750000000
   0.250688527   0.500000000   0.250000000
   0.250688527   0.500000000   0.750000000
   0.750688527   1.000000000   0.250000000
   0.750688527   1.000000000   0.750000000
   0.749311473   0.500000000   0.250000000
   0.749311473   0.500000000   0.750000000
   0.250000000   0.250000000   1.000000000
   0.250000000   0.250000000   0.500000000
   0.250000000   0.750000000   1.000000000
   0.250000000   0.750000000   0.500000000
   0.750000000   0.250000000   1.000000000
   0.750000000   0.250000000   0.500000000
   0.750000000   0.750000000   1.000000000
   0.750000000   0.750000000   0.500000000
   0.250000000   0.250000000   0.250000000
   0.250000000   0.250000000   0.750000000
   0.250000000   0.750000000   0.250000000
   0.250000000   0.750000000   0.750000000
   0.750000000   0.250000000   0.250000000
   0.750000000   0.250000000   0.750000000
   0.750000000   0.750000000   0.250000000
   0.750000000   0.750000000   0.750000000
   0.250894157   1.000000000   1.000000000
   0.250894157   1.000000000   0.500000000
   0.249105843   0.500000000   1.000000000
   0.249105843   0.500000000   0.500000000
   0.749105843   1.000000000   1.000000000
   0.749105843   1.000000000   0.500000000
   0.750894157   0.500000000   1.000000000
   0.750894157   0.500000000   0.500000000
   1.000000000   0.250894157   1.000000000
   1.000000000   0.250894157   0.500000000
   1.000000000   0.749105843   1.000000000
   1.000000000   0.749105843   0.500000000
   0.500000000   0.249105843   1.000000000
   0.500000000   0.249105843   0.500000000
   0.500000000   0.750894157   1.000000000
   0.500000000   0.750894157   0.500000000
   1.000000000   1.000000000   0.250000000
   1.000000000   1.000000000   0.750000000
   1.000000000   0.500000000   0.250000000
   1.000000000   0.500000000   0.750000000
   0.500000000   1.000000000   0.250000000
   0.500000000   1.000000000   0.750000000
   0.500000000   0.500000000   0.250000000
   0.500000000   0.500000000   0.750000000
Mg28Ni4O32
   1.00000000
   8.501226313   0.000000000   0.000000000
   0.000000000   8.501226313  -0.000000000
   0.000000000  -0.000000000   8.498562297
  Ni  Mg  O
  4  28  32
Direct configuration=     11
   1.000000000   1.000000000   1.000000000
   1.000000000   1.000000000   0.500000000
   0.500000000   0.500000000   1.000000000
   0.500000000   0.500000000   0.500000000