Mg28Ni4O32
   1.00000000
   8.440355165  -0.000005201   0.000000000
  -0.000005201   8.440332874   0.000000000
   0.000000000   0.000000000   8.440349081
  Ni  Mg  O
  4  28  32
Direct configuration=     1
   0.999954807   0.000043223   0.000069110
   0.999954807   0.000043223   0.499930890
   0.000119592   0.249913777   0.250000000
   0.249993726   0.499939352   0.250000000
   0.000103440   0.499941154   0.000185631
   0.000103440   0.499941154   0.499814369
   0.499991323   0.999973487   0.999986338
   0.499991323   0.999973487   0.500013662
   0.499924930   0.500039222   0.000045152
   0.499924930   0.500039222   0.499954848
   0.999988224   0.249817395   0.750000000
   0.000099079   0.750111367   0.250000000
   0.999981421   0.750225079   0.750000000
   0.499895067   0.250089008   0.250000000
   0.500034585   0.250012003   0.750000000
   0.499885168   0.749872820   0.250000000
   0.500018614   0.749993594   0.750000000
   0.249656565   0.000051935   0.250000000
   0.249848550   0.999960920   0.750000000
   0.249972823   0.500026403   0.750000000
   0.750308240   0.000058476   0.250000000
   0.750149680   0.999978395   0.750000000
   0.750048075   0.499968553   0.250000000
   0.750003384   0.500027357   0.750000000
   0.249829880   0.249990470   0.000170682
   0.249829880   0.249990470   0.499829318
   0.249923050   0.750006432   0.000064775
   0.249923050   0.750006432   0.499935225
   0.750169519   0.249909073   0.000020611
   0.750169519   0.249909073   0.499979389
   0.750089009   0.750090379   0.999974973
   0.750089009   0.750090379   0.500025027
   0.250031263   0.249806526   0.250000000
   0.249920154   0.250063125   0.750000000
   0.249986585   0.750176031   0.250000000
   0.249963911   0.749941304   0.750000000
   0.749923080   0.249977204   0.250000000
   0.750077989   0.249989446   0.750000000
   0.750043440   0.749947232   0.250000000
   0.750036610   0.750010539   0.750000000
   0.250148532   0.000046730   0.000076086
   0.250148532   0.000046730   0.499923914
   0.249897675   0.499949859   0.999815132
   0.249897675   0.499949859   0.500184868
   0.749877095   0.000049250   0.000051720
   0.749877095   0.000049250   0.499948280
   0.750051971   0.499980317   0.000078791
   0.750051971   0.499980317   0.499921209
   0.000022893   0.250103343   0.999951073
   0.000022893   0.250103343   0.500048927
   0.999984905   0.749869892   0.000026126
   0.999984905   0.749869892   0.499973874
   0.500001479   0.249932863   0.000102652
   0.500001479   0.249932863   0.499897348
   0.499998473   0.750052705   0.000038293
   0.499998473   0.750052705   0.499961707
   0.000043776   0.000029835   0.250000000
   0.000010903   0.000068651   0.750000000
   0.999834536   0.500046802   0.250000000
   0.000072470   0.499924626   0.750000000
   0.499975039   0.000098306   0.250000000
   0.500003597   0.000026908   0.750000000
   0.500201016   0.499913788   0.250000000
   0.499934877   0.499976446   0.750000000
Mg28Ni4O32
   1.00000000
   8.442456309  -0.000036476  -0.000000000
  -0.000036476   8.442303210   0.000000000
  -0.000000000   0.000000000   8.442415574
  Ni  Mg  O
  4  28  32
Direct configuration=     2
   0.999734765   0.000264553   0.000435941
   0.999734765   0.000264553   0.499564059
   0.000695287   0.249514138   0.250000000
   0.249943970   0.499620964   0.250000000
   0.000607948   0.499640417   0.001099380
   0.000607948   0.499640417   0.498900620
   0.499923165   0.999879457   0.000007590
   0.499923165   0.999879457   0.499992410
   0.499569769   0.500194620   0.000268757
   0.499569769   0.500194620   0.499731243
   0.999978635   0.248972448   0.750000000
   0.000568439   0.750639219   0.250000000
   0.999911954   0.751284658   0.750000000
   0.499407498   0.250439547   0.250000000
   0.500165442   0.250052206   0.750000000
   0.499336382   0.749323218   0.250000000
   0.500086360   0.749983916   0.750000000
   0.247973395   0.000327795   0.250000000
   0.249120390   0.999809859   0.750000000
   0.249734574   0.500115200   0.750000000
   0.751794907   0.000374631   0.250000000
   0.750869693   0.999898674   0.750000000
   0.750309973   0.499797957   0.250000000
   0.750122106   0.500142140   0.750000000
   0.248983176   0.249915192   0.001001079
   0.248983176   0.249915192   0.498998921
   0.249518477   0.750060515   0.000381265
   0.249518477   0.750060515   0.499618735
   0.751011322   0.249473658   0.000166305
   0.751011322   0.249473658   0.499833695
   0.750556098   0.750521296   0.999910569
   0.750556098   0.750521296   0.500089431
   0.250093396   0.248867934   0.250000000
   0.249497504   0.250316358   0.750000000
   0.249875961   0.751021768   0.250000000
   0.249755965   0.749712052   0.750000000
   0.749655218   0.249818455   0.250000000
   0.750501450   0.249894672   0.750000000
   0.750310699   0.749740924   0.250000000
   0.750245255   0.750116093   0.750000000
   0.250808693   0.000272095   0.000451123
   0.250808693   0.000272095   0.499548877
   0.249390422   0.499699346   0.998981065
   0.249390422   0.499699346   0.501018935
   0.749342136   0.000291640   0.000298192
   0.749342136   0.000291640   0.499701808
   0.750307014   0.499880155   0.000453745
   0.750307014   0.499880155   0.499546255
   0.000152024   0.250573176   0.999764582
   0.000152024   0.250573176   0.500235418
   0.999926877   0.749277181   0.000175216
   0.999926877   0.749277181   0.499824784
   0.499990702   0.249645736   0.000610060
   0.499990702   0.249645736   0.499389940
   0.499971060   0.750269397   0.000227402
   0.499971060   0.750269397   0.499772598
   0.000258994   0.000203773   0.250000000
   0.000053819   0.000401121   0.750000000
   0.999090454   0.500254076   0.250000000
   0.000400217   0.499562609   0.750000000
   0.499851615   0.000561531   0.250000000
   0.500039217   0.000142467   0.750000000
   0.501126953   0.499494359   0.250000000
   0.499636988   0.499878371   0.750000000
Mg28Ni4O32
   1.00000000
   8.443089343  -0.000046266  -0.000000000
  -0.000046266   8.442897192   0.000000000
  -0.000000000   0.000000000   8.443038506
  Ni  Mg  O
  4  28  32
Direct configuration=     3
   0.999707353   0.000300782   0.000504010
   0.999707353   0.000300782   0.499495990
   0.000757487   0.249487186   0.250000000
   0.249921349   0.499562286   0.250000000
   0.000665322   0.499594729   0.001216667
   0.000665322   0.499594729   0.498783333
   0.499892849   0.999898983   0.000086740
   0.499892849   0.999898983   0.499913260
   0.499537014   0.500181276   0.000295936
   0.499537014   0.500181276   0.499704064
   0.000018853   0.248913202   0.750000000
   0.000611940   0.750685916   0.250000000
   0.999921823   0.751379110   0.750000000
   0.499372622   0.250406931   0.250000000
   0.500149584   0.250040998   0.750000000
   0.499281176   0.749318605   0.250000000
   0.500075222   0.750001824   0.750000000
   0.247767202   0.000376601   0.250000000
   0.249046025   0.999826661   0.750000000
   0.249613822   0.500090696   0.750000000
   0.751958556   0.000438644   0.250000000
   0.750943270   0.999912870   0.750000000
   0.750362921   0.499762553   0.250000000
   0.750226760   0.500139197   0.750000000
   0.248869247   0.249879956   0.001096402
   0.248869247   0.249879956   0.498903598
   0.249444923   0.750087396   0.000418468
   0.249444923   0.750087396   0.499581532
   0.751124316   0.249430512   0.000221224
   0.751124316   0.249430512   0.499778776
   0.750639302   0.750563680   0.999953288
   0.750639302   0.750563680   0.500046712
   0.250019205   0.248763891   0.250000000
   0.249417865   0.250295506   0.750000000
   0.249821316   0.751110742   0.250000000
   0.249699447   0.749737030   0.750000000
   0.749720843   0.249757829   0.250000000
   0.750590569   0.249846469   0.750000000
   0.750393037   0.749764475   0.250000000
   0.750299911   0.750175615   0.750000000
   0.250826744   0.000297246   0.000499479
   0.250826744   0.000297246   0.499500521
   0.249323087   0.499663111   0.998945750
   0.249323087   0.499663111   0.501054250
   0.749338105   0.000322270   0.000326268
   0.749338105   0.000322270   0.499673732
   0.750342901   0.499862860   0.000491100
   0.750342901   0.499862860   0.499508900
   0.000182596   0.250596816   0.999790693
   0.000182596   0.250596816   0.500209307
   0.999935109   0.749244908   0.000213223
   0.999935109   0.749244908   0.499786777
   0.499972340   0.249646771   0.000676646
   0.499972340   0.249646771   0.499323354
   0.499949406   0.750260016   0.000255187
   0.499949406   0.750260016   0.499744813
   0.000281597   0.000249775   0.250000000
   0.000051669   0.000437453   0.750000000
   0.999062077   0.500259678   0.250000000
   0.000415014   0.499523350   0.750000000
   0.499835652   0.000602342   0.250000000
   0.500056603   0.000145018   0.750000000
   0.501186991   0.499445661   0.250000000
   0.499618368   0.499879264   0.750000000
Mg28Ni4O32
   1.00000000
   8.449712538  -0.000149642  -0.000000000
  -0.000149642   8.449112026   0.000000000
  -0.000000000   0.000000000   8.449556174
  Ni  Mg  O
  4  28  32
Direct configuration=     4
   0.999507495   0.000596804   0.001078184
   0.999507495   0.000596804   0.498921816
   0.001155936   0.249409820   0.250000000
   0.249693154   0.499062581   0.250000000
   0.001040521   0.499242918   0.002069643
   0.001040521   0.499242918   0.497930357
   0.499581616   0.000172376   0.000990773
   0.499581616   0.000172376   0.499009227
   0.499357831   0.499937461   0.000470659
   0.499357831   0.499937461   0.499529341
   0.000481219   0.248692778   0.750000000
   0.000857015   0.750924492   0.250000000
   0.000067239   0.751886778   0.750000000
   0.499246404   0.249833649   0.250000000
   0.499902527   0.249891833   0.750000000
   0.498948120   0.749573544   0.250000000
   0.499915728   0.750214217   0.750000000
   0.246314717   0.000769859   0.250000000
   0.248603163   0.000106241   0.750000000
   0.248349417   0.499759415   0.750000000
   0.753026741   0.000994318   0.250000000
   0.751377680   0.000127591   0.750000000
   0.750819333   0.499449712   0.250000000
   0.751378212   0.500042623   0.750000000
   0.248030411   0.249507624   0.001728846
   0.248030411   0.249507624   0.498271154
   0.248820875   0.750370847   0.000668947
   0.248820875   0.750370847   0.499331053
   0.751961623   0.249180584   0.000760128
   0.751961623   0.249180584   0.499239872
   0.751335069   0.750811567   0.000480346
   0.751335069   0.750811567   0.499519654
   0.249116531   0.248088758   0.250000000
   0.248728933   0.249900678   0.750000000
   0.249240397   0.751662447   0.250000000
   0.249137786   0.750161690   0.750000000
   0.750652226   0.249146276   0.250000000
   0.751394913   0.249349819   0.750000000
   0.751206871   0.750167366   0.250000000
   0.750837828   0.750801887   0.750000000
   0.250640697   0.000468890   0.000855864
   0.250640697   0.000468890   0.499144136
   0.248814025   0.499373170   0.999027301
   0.248814025   0.499373170   0.500972699
   0.749605316   0.000547584   0.000540251
   0.749605316   0.000547584   0.499459749
   0.750643772   0.499708045   0.000727227
   0.750643772   0.499708045   0.499272773
   0.000467879   0.250600030   0.000210668
   0.000467879   0.250600030   0.499789332
   0.000069287   0.749214538   0.000579513
   0.000069287   0.749214538   0.499420487
   0.499759610   0.249810687   0.001173269
   0.499759610   0.249810687   0.498826731
   0.499709687   0.750037695   0.000492873
   0.499709687   0.750037695   0.499507127
   0.000411165   0.000687202   0.250000000
   0.000016303   0.000676423   0.750000000
   0.999170597   0.500205072   0.250000000
   0.000404031   0.499271340   0.750000000
   0.499720091   0.000817490   0.250000000
   0.500220173   0.000128903   0.750000000
   0.501351100   0.499105750   0.250000000
   0.499563023   0.499927810   0.750000000
Mg28Ni4O32
   1.00000000
   8.453785772  -0.000214037  -0.000000000
  -0.000214037   8.452932690   0.000000000
  -0.000000000   0.000000000   8.453563280
  Ni  Mg  O
  4  28  32
Direct configuration=     5
   0.999444666   0.000706000   0.001291204
   0.999444666   0.000706000   0.498708796
   0.001225479   0.249492079   0.250000000
   0.249587754   0.498865030   0.250000000
   0.001107384   0.499138322   0.002319377
   0.001107384   0.499138322   0.497680623
   0.499424236   0.000345019   0.001499242
   0.499424236   0.000345019   0.498500758
   0.499353052   0.499752163   0.000487271
   0.499353052   0.499752163   0.499512729
   0.000730177   0.248780581   0.750000000
   0.000876753   0.750907919   0.250000000
   0.000155188   0.751903809   0.750000000
   0.499312449   0.249416777   0.250000000
   0.499740502   0.249800968   0.750000000
   0.498902247   0.749867694   0.250000000
   0.499817569   0.750337415   0.750000000
   0.245930015   0.000888685   0.250000000
   0.248562687   0.000306226   0.750000000
   0.247693877   0.499549457   0.750000000
   0.753243478   0.001208245   0.250000000
   0.751408485   0.000280667   0.750000000
   0.750992110   0.499319928   0.250000000
   0.752013180   0.499959021   0.750000000
   0.247793265   0.249305426   0.001854290
   0.247793265   0.249305426   0.498145710
   0.248576322   0.750521977   0.000721825
   0.248576322   0.750521977   0.499278175
   0.752213230   0.249165611   0.001002481
   0.752213230   0.249165611   0.498997519
   0.751596975   0.750834292   0.000792673
   0.751596975   0.750834292   0.499207327
   0.248576241   0.247964991   0.250000000
   0.248448641   0.249592115   0.750000000
   0.248925732   0.751740875   0.250000000
   0.248838556   0.750475216   0.750000000
   0.751289514   0.248849095   0.250000000
   0.751754360   0.249109052   0.750000000
   0.751613652   0.750474142   0.250000000
   0.751121547   0.751122937   0.750000000
   0.250315128   0.000515461   0.000968380
   0.250315128   0.000515461   0.499031620
   0.248640147   0.499258132   0.999335747
   0.248640147   0.499258132   0.500664253
   0.749923741   0.000620911   0.000638099
   0.749923741   0.000620911   0.499361901
   0.750792543   0.499630107   0.000782942
   0.750792543   0.499630107   0.499217058
   0.000599034   0.250463370   0.000519660
   0.000599034   0.250463370   0.499480340
   0.000170038   0.749376896   0.000762962
   0.000170038   0.749376896   0.499237038
   0.499631924   0.249964368   0.001334397
   0.499631924   0.249964368   0.498665603
   0.499573274   0.749865959   0.000611493
   0.499573274   0.749865959   0.499388507
   0.000406353   0.000890567   0.250000000
   0.000005711   0.000731002   0.750000000
   0.999465694   0.500113820   0.250000000
   0.000312717   0.499225714   0.750000000
   0.499687677   0.000816962   0.250000000
   0.500275411   0.000119621   0.750000000
   0.501174799   0.499006529   0.250000000
   0.499601525   0.499954832   0.750000000
Mg28Ni4O32
   1.00000000
   8.458649641  -0.000291901  -0.000000000
  -0.000291901   8.457491429   0.000000000
  -0.000000000   0.000000000   8.458345324
  Ni  Mg  O
  4  28  32
Direct configuration=     6
   0.999418165   0.000757104   0.001373410
   0.999418165   0.000757104   0.498626590
   0.001172839   0.249669158   0.250000000
   0.249532139   0.498760310   0.250000000
   0.001051984   0.499133574   0.002378112
   0.001051984   0.499133574   0.497621888
   0.499305530   0.000492890   0.001921341
   0.499305530   0.000492890   0.498078659
   0.499416881   0.499557880   0.000420279
   0.499416881   0.499557880   0.499579721
   0.000908602   0.248981454   0.750000000
   0.000819690   0.750778188   0.250000000
   0.000216357   0.751748341   0.750000000
   0.499471045   0.249012106   0.250000000
   0.499603800   0.249726120   0.750000000
   0.498957206   0.750216416   0.250000000
   0.499741028   0.750442173   0.750000000
   0.245896202   0.000880167   0.250000000
   0.248690313   0.000501026   0.750000000
   0.247186863   0.499359870   0.750000000
   0.753165983   0.001294843   0.250000000
   0.751260249   0.000441698   0.750000000
   0.751058772   0.499246819   0.250000000
   0.752545668   0.499871334   0.750000000
   0.247775167   0.249129951   0.001785175
   0.247775167   0.249129951   0.498214825
   0.248448124   0.750646125   0.000700162
   0.248448124   0.750646125   0.499299838
   0.752271930   0.249252308   0.001133317
   0.752271930   0.249252308   0.498866683
   0.751716228   0.750769736   0.001059333
   0.751716228   0.750769736   0.498940667
   0.248098054   0.248048554   0.250000000
   0.248292773   0.249263330   0.750000000
   0.248660411   0.751632984   0.250000000
   0.248566835   0.750796211   0.750000000
   0.751934973   0.248652193   0.250000000
   0.752003654   0.248958868   0.750000000
   0.751928838   0.750804524   0.250000000
   0.751377194   0.751358464   0.750000000
   0.249842441   0.000528000   0.001012622
   0.249842441   0.000528000   0.498987378
   0.248551607   0.499176896   0.999815986
   0.248551607   0.499176896   0.500184014
   0.750327964   0.000656518   0.000748267
   0.750327964   0.000656518   0.499251733
   0.750954244   0.499554610   0.000800735
   0.750954244   0.499554610   0.499199265
   0.000689889   0.250240144   0.000846115
   0.000689889   0.250240144   0.499153885
   0.000278715   0.749661890   0.000915392
   0.000278715   0.749661890   0.499084608
   0.499512530   0.250111074   0.001400829
   0.499512530   0.250111074   0.498599171
   0.499451893   0.749706558   0.000735125
   0.499451893   0.749706558   0.499264875
   0.000326494   0.001028585   0.250000000
   0.000024376   0.000732027   0.750000000
   0.999910441   0.499994088   0.250000000
   0.000185316   0.499257152   0.750000000
   0.499682211   0.000732595   0.250000000
   0.500264387   0.000146383   0.750000000
   0.500818419   0.498966216   0.250000000
   0.499672284   0.499947283   0.750000000
Mg28Ni4O32
   1.00000000
   8.464062324  -0.000379571  -0.000000000
  -0.000379572   8.462559420   0.000000000
  -0.000000000   0.000000000   8.463663156
  Ni  Mg  O
  4  28  32
Direct configuration=     7
   0.999414135   0.000749466   0.001307188
   0.999414135   0.000749466   0.498692812
   0.001060171   0.249863791   0.250000000
   0.249558293   0.498763417   0.250000000
   0.000925883   0.499222823   0.002300531
   0.000925883   0.499222823   0.497699469
   0.499261831   0.000549819   0.002107563
   0.499261831   0.000549819   0.497892437
   0.499499605   0.499428088   0.000293647
   0.499499605   0.499428088   0.499706353
   0.000937411   0.249144326   0.750000000
   0.000748818   0.750612416   0.250000000
   0.000211355   0.751570063   0.750000000
   0.499637780   0.248797693   0.250000000
   0.499561572   0.249701510   0.750000000
   0.499049276   0.750450019   0.250000000
   0.499725849   0.750489960   0.750000000
   0.246086779   0.000739556   0.250000000
   0.248898017   0.000608126   0.750000000
   0.246990870   0.499265079   0.750000000
   0.752938378   0.001228910   0.250000000
   0.751018845   0.000557412   0.750000000
   0.751000157   0.499246409   0.250000000
   0.752805346   0.499821771   0.750000000
   0.247933036   0.249027997   0.001596848
   0.247933036   0.249027997   0.498403152
   0.248451135   0.750704429   0.000632344
   0.248451135   0.750704429   0.499367656
   0.752179932   0.249386902   0.001096066
   0.752179932   0.249386902   0.498903934
   0.751678174   0.750671864   0.001179439
   0.751678174   0.750671864   0.498820561
   0.247856822   0.248245336   0.250000000
   0.248292276   0.249047153   0.750000000
   0.248525936   0.751426452   0.250000000
   0.248385528   0.750994283   0.750000000
   0.752361140   0.248636602   0.250000000
   0.752090615   0.248968176   0.750000000
   0.752061094   0.751031461   0.250000000
   0.751545090   0.751422360   0.750000000
   0.249402703   0.000521831   0.001008474
   0.249402703   0.000521831   0.498991526
   0.248528723   0.499127408   0.000263736
   0.248528723   0.499127408   0.499736264
   0.750646531   0.000668120   0.000877376
   0.750646531   0.000668120   0.499122624
   0.751128427   0.499491576   0.000819890
   0.751128427   0.499491576   0.499180110
   0.000717937   0.250034438   0.001069704
   0.000717937   0.250034438   0.498930296
   0.000354965   0.749945591   0.001002900
   0.000354965   0.749945591   0.498997100
   0.499442946   0.250154432   0.001393225
   0.499442946   0.250154432   0.498606775
   0.499384804   0.749645499   0.000855104
   0.499384804   0.749645499   0.499144896
   0.000201623   0.001060970   0.250000000
   0.000079659   0.000714254   0.750000000
   0.000318784   0.499907215   0.250000000
   0.000101885   0.499332111   0.750000000
   0.499693094   0.000628391   0.250000000
   0.500170916   0.000232736   0.750000000
   0.500462286   0.498951811   0.250000000
   0.499722801   0.499879664   0.750000000
Mg28Ni4O32
   1.00000000
   8.473993633  -0.000541785  -0.000000000
  -0.000541785   8.471850266   0.000000000
  -0.000000000   0.000000000   8.473415321
  Ni  Mg  O
  4  28  32
Direct configuration=     8
   0.999411944   0.000689667   0.001054421
   0.999411944   0.000689667   0.498945579
   0.000884800   0.250128141   0.250000000
   0.249704022   0.498870728   0.250000000
   0.000709389   0.499446905   0.002107514
   0.000709389   0.499446905   0.497892486
   0.499286377   0.000505506   0.002079194
   0.499286377   0.000505506   0.497920806
   0.499603610   0.499331991   0.000059350
   0.499603610   0.499331991   0.499940650
   0.000788512   0.249240387   0.750000000
   0.000678624   0.750380132   0.250000000
   0.000111072   0.751400831   0.750000000
   0.499843553   0.248770532   0.250000000
   0.499636254   0.249735344   0.750000000
   0.499172908   0.750574858   0.250000000
   0.499788366   0.750484580   0.750000000
   0.246471791   0.000388706   0.250000000
   0.249225241   0.000634387   0.750000000
   0.247080140   0.499256946   0.750000000
   0.752568766   0.000968929   0.250000000
   0.750618376   0.000663643   0.750000000
   0.750778298   0.499323073   0.250000000
   0.752850276   0.499813688   0.750000000
   0.248304239   0.248963604   0.001254348
   0.248304239   0.248963604   0.498745652
   0.248577795   0.750706159   0.000508393
   0.248577795   0.750706159   0.499491607
   0.751939722   0.249600963   0.000842713
   0.751939722   0.249600963   0.499157287
   0.751468388   0.750533786   0.001163937
   0.751468388   0.750533786   0.498836063
   0.247828873   0.248578304   0.250000000
   0.248458206   0.248916163   0.750000000
   0.248497321   0.751077889   0.250000000
   0.248232371   0.751087413   0.750000000
   0.752662394   0.248853118   0.250000000
   0.752039218   0.249188310   0.750000000
   0.752029209   0.751186250   0.250000000
   0.751678502   0.751299866   0.750000000
   0.248870051   0.000504014   0.000976837
   0.248870051   0.000504014   0.499023163
   0.248535594   0.499073653   0.000781780
   0.248535594   0.499073653   0.499218220
   0.750933369   0.000678465   0.001102226
   0.750933369   0.000678465   0.498897774
   0.751423189   0.499413211   0.000886558
   0.751423189   0.499413211   0.499113442
   0.000687574   0.249804816   0.001233823
   0.000687574   0.249804816   0.498766177
   0.000411837   0.750301673   0.001057034
   0.000411837   0.750301673   0.498942966
   0.499417135   0.250043800   0.001330255
   0.499417135   0.250043800   0.498669745
   0.499360662   0.749708735   0.001032851
   0.499360662   0.749708735   0.498967149
   0.999984675   0.000982982   0.250000000
   0.000199809   0.000703723   0.750000000
   0.000791791   0.499855359   0.250000000
   0.000079966   0.499464481   0.750000000
   0.499710872   0.000497361   0.250000000
   0.499934431   0.000443648   0.750000000
   0.500046900   0.498919486   0.250000000
   0.499742714   0.499696842   0.750000000
Mg28Ni4O32
   1.00000000
   8.486211967  -0.000743280  -0.000000000
  -0.000743281   8.483269191   0.000000000
  -0.000000000   0.000000000   8.485407201
  Ni  Mg  O
  4  28  32
Direct configuration=     9
   0.999402907   0.000597979   0.000673917
   0.999402907   0.000597979   0.499326083
   0.000761332   0.250296630   0.250000000
   0.249956971   0.499062408   0.250000000
   0.000526587   0.499733018   0.001888600
   0.000526587   0.499733018   0.498111400
   0.499411285   0.000310135   0.001693027
   0.499411285   0.000310135   0.498306973
   0.499646880   0.499367296   0.999829585
   0.499646880   0.499367296   0.500170415
   0.000443146   0.249110750   0.750000000
   0.000680458   0.750230484   0.250000000
   0.999916230   0.751430277   0.750000000
   0.499945084   0.249115259   0.250000000
   0.499867964   0.249849519   0.750000000
   0.499235262   0.750373193   0.250000000
   0.499941382   0.750385977   0.750000000
   0.246842030   0.999938279   0.250000000
   0.249480640   0.000489342   0.750000000
   0.247603006   0.499412645   0.750000000
   0.752283328   0.000576810   0.250000000
   0.750263694   0.000672945   0.750000000
   0.750443447   0.499474806   0.250000000
   0.752488847   0.499896768   0.750000000
   0.248742929   0.249010861   0.000930807
   0.248742929   0.249010861   0.499069193
   0.248807245   0.750599969   0.000392946
   0.248807245   0.750599969   0.499607054
   0.751650840   0.249778193   0.000411069
   0.751650840   0.249778193   0.499588931
   0.751129167   0.750450311   0.000922245
   0.751129167   0.750450311   0.499077755
   0.248227832   0.248862428   0.250000000
   0.248794606   0.249067188   0.750000000
   0.248694740   0.750763691   0.250000000
   0.248268677   0.750890087   0.750000000
   0.752480373   0.249343964   0.250000000
   0.751773561   0.249625606   0.750000000
   0.751711582   0.751049040   0.250000000
   0.751620087   0.750935520   0.750000000
   0.248607592   0.000472945   0.000927913
   0.248607592   0.000472945   0.499072087
   0.248590553   0.499052408   0.000981018
   0.248590553   0.499052408   0.499018982
   0.750901948   0.000684239   0.001307256
   0.750901948   0.000684239   0.498692744
   0.751704836   0.499379303   0.000993286
   0.751704836   0.499379303   0.499006714
   0.000574076   0.249725573   0.001140646
   0.000574076   0.249725573   0.498859354
   0.000377401   0.750496841   0.001004235
   0.000377401   0.750496841   0.498995765
   0.499509040   0.249720685   0.001219218
   0.499509040   0.249720685   0.498780782
   0.499440842   0.749955572   0.001160582
   0.499440842   0.749955572   0.498839418
   0.999777738   0.000762108   0.250000000
   0.000323470   0.000732085   0.750000000
   0.000990228   0.499930066   0.250000000
   0.000207616   0.499590892   0.750000000
   0.499713377   0.000432738   0.250000000
   0.499633435   0.000707982   0.750000000
   0.499894613   0.498865541   0.250000000
   0.499686988   0.499454313   0.750000000
Mg28Ni4O32
   1.00000000
   8.495784153  -0.000904104  -0.000000000
  -0.000904104   8.492198942   0.000000000
  -0.000000000   0.000000000   8.494794753
  Ni  Mg  O
  4  28  32
Direct configuration=     10
   0.999393383   0.000527666   0.000366368
   0.999393383   0.000527666   0.499633632
   0.000768167   0.250249228   0.250000000
   0.250189163   0.499234138   0.250000000
   0.000498345   0.499925892   0.001743403
   0.000498345   0.499925892   0.498256597
   0.499582618   0.000055193   0.001114829
   0.499582618   0.000055193   0.498885171
   0.499594037   0.499528654   0.999755632
   0.499594037   0.499528654   0.500244368
   0.000084731   0.248816544   0.750000000
   0.000751186   0.750267172   0.250000000
   0.999732910   0.751666218   0.750000000
   0.499870604   0.249688128   0.250000000
   0.500141682   0.249988140   0.750000000
   0.499196626   0.749896210   0.250000000
   0.500102442   0.750231607   0.750000000
   0.247011284   0.999642031   0.250000000
   0.249498679   0.000228769   0.750000000
   0.248338306   0.499668518   0.750000000
   0.752231218   0.000266164   0.250000000
   0.750162270   0.000563132   0.750000000
   0.750176267   0.499631915   0.250000000
   0.751860479   0.500045366   0.750000000
   0.249015969   0.249166155   0.000811953
   0.249015969   0.249166155   0.499188047
   0.249025528   0.750416558   0.000352368
   0.249025528   0.750416558   0.499647632
   0.751459343   0.249814158   0.000042323
   0.751459343   0.249814158   0.499957677
   0.750829041   0.750478261   0.000564204
   0.750829041   0.750478261   0.499435796
   0.248925104   0.248934316   0.250000000
   0.249159733   0.249484455   0.750000000
   0.249072447   0.750651966   0.250000000
   0.248558189   0.750440535   0.750000000
   0.751805575   0.249900591   0.250000000
   0.751374380   0.250068219   0.750000000
   0.751203871   0.750602143   0.250000000
   0.751312271   0.750496721   0.750000000
   0.248830157   0.000419570   0.000867275
   0.248830157   0.000419570   0.499132725
   0.248712607   0.499103477   0.000665915
   0.248712607   0.499103477   0.499334085
   0.750489229   0.000668087   0.001313312
   0.750489229   0.000668087   0.498686688
   0.751763248   0.499445606   0.001057264
   0.751763248   0.499445606   0.498942736
   0.000418216   0.249866930   0.000773116
   0.000418216   0.249866930   0.499226884
   0.000240701   0.750393793   0.000833084
   0.000240701   0.750393793   0.499166916
   0.499710995   0.249340293   0.001084052
   0.499710995   0.249340293   0.498915948
   0.499609661   0.750263622   0.001108480
   0.499609661   0.750263622   0.498891520
   0.999707203   0.000485237   0.250000000
   0.000343267   0.000784961   0.750000000
   0.000748781   0.500125361   0.250000000
   0.000439518   0.499649403   0.750000000
   0.499688688   0.000470658   0.250000000
   0.499455268   0.000848685   0.750000000
   0.500153213   0.498835746   0.250000000
   0.499590321   0.499309891   0.750000000
Mg28Ni4O32
   1.00000000
   8.499226093  -0.000966003  -0.000000000
  -0.000966002   8.495389484   0.000000000
  -0.000000000   0.000000000   8.498162125
  Ni  Mg  O
  4  28  32
Direct configuration=     11
   0.999399433   0.000514371   0.000297029
   0.999399433   0.000514371   0.499702971
   0.000847034   0.250072565   0.250000000
   0.250262775   0.499287901   0.250000000