********************************************************************************
*                       GENERAL UTILITY LATTICE PROGRAM                        *
*                                 Julian Gale                                  *
*                       Curtin Institute for Computation                       *
*                    School of Molecular and Life Sciences                     *
*                    Curtin University, Western Australia                      *
********************************************************************************
* Version = 6.4.0 * Last modified =  22nd December 2025                        *
********************************************************************************
*  optimise     - perform optimisation run                                     *
*  conp         - constant pressure calculation                                *
********************************************************************************
*  Al/Fe substitutions in LaFeO3  perovskite - configuration 1                 *
********************************************************************************


  Job Started  at 17:31.35  5th April      2026                               

  Number of CPUs =     1


  Total number of configurations input =      1

********************************************************************************
*  Input for Configuration =   1                                               *
********************************************************************************

  Formula = La8Al3Fe5O24

  Number of irreducible atoms/shells =      80


  Total number atoms/shells =      80

  Dimensionality = 3               :  Bulk   



  Cartesian lattice vectors (Angstroms) :

        7.400000    0.000000    0.000000
        0.000000    7.400000    0.000000
        0.000000    0.000000    7.400000

  Cell parameters (Angstroms/Degrees):

  a =       7.4000    alpha =  90.0000
  b =       7.4000    beta  =  90.0000
  c =       7.4000    gamma =  90.0000

  Initial cell volume =         405.224000 Angs**3

  Temperature of configuration =   0.00     K 

  Pressure of configuration =         0.000 GPa 

  Fractional coordinates of asymmetric unit :

--------------------------------------------------------------------------------
   No.  Atomic       x           y          z         Charge      Occupancy
        Label      (Frac)      (Frac)     (Frac)        (e)         (Frac)  
--------------------------------------------------------------------------------
      1 La    c    0.000000    0.000000    0.000000     5.14900    1.000000    
      2 La    c    0.000000 *  0.000000 *  0.500000 *   5.14900    1.000000    
      3 La    c    0.000000 *  0.500000 *  0.000000 *   5.14900    1.000000    
      4 La    c    0.000000 *  0.500000 *  0.500000 *   5.14900    1.000000    
      5 La    c    0.500000 *  0.000000 *  0.000000 *   5.14900    1.000000    
      6 La    c    0.500000 *  0.000000 *  0.500000 *   5.14900    1.000000    
      7 La    c    0.500000 *  0.500000 *  0.000000 *   5.14900    1.000000    
      8 La    c    0.500000 *  0.500000 *  0.500000 *   5.14900    1.000000    
      9 Al    c    0.250000 *  0.250000 *  0.250000 *   0.04300    1.000000    
     10 Al    c    0.250000 *  0.250000 *  0.750000 *   0.04300    1.000000    
     11 Al    c    0.250000 *  0.750000 *  0.250000 *   0.04300    1.000000    
     12 Fe    c    0.250000 *  0.750000 *  0.750000 *   1.97100    1.000000    
     13 Fe    c    0.750000 *  0.250000 *  0.250000 *   1.97100    1.000000    
     14 Fe    c    0.750000 *  0.250000 *  0.750000 *   1.97100    1.000000    
     15 Fe    c    0.750000 *  0.750000 *  0.250000 *   1.97100    1.000000    
     16 Fe    c    0.750000 *  0.750000 *  0.750000 *   1.97100    1.000000    
     17 O     c    0.250000 *  0.250000 *  0.000000 *   0.51300    1.000000    
     18 O     c    0.250000 *  0.250000 *  0.500000 *   0.51300    1.000000    
     19 O     c    0.250000 *  0.750000 *  0.000000 *   0.51300    1.000000    
     20 O     c    0.250000 *  0.750000 *  0.500000 *   0.51300    1.000000    
     21 O     c    0.750000 *  0.250000 *  0.000000 *   0.51300    1.000000    
     22 O     c    0.750000 *  0.250000 *  0.500000 *   0.51300    1.000000    
     23 O     c    0.750000 *  0.750000 *  0.000000 *   0.51300    1.000000    
     24 O     c    0.750000 *  0.750000 *  0.500000 *   0.51300    1.000000    
     25 O     c    0.000000 *  0.250000 *  0.250000 *   0.51300    1.000000    
     26 O     c    0.000000 *  0.250000 *  0.750000 *   0.51300    1.000000    
     27 O     c    0.000000 *  0.750000 *  0.250000 *   0.51300    1.000000    
     28 O     c    0.000000 *  0.750000 *  0.750000 *   0.51300    1.000000    
     29 O     c    0.500000 *  0.250000 *  0.250000 *   0.51300    1.000000    
     30 O     c    0.500000 *  0.250000 *  0.750000 *   0.51300    1.000000    
     31 O     c    0.500000 *  0.750000 *  0.250000 *   0.51300    1.000000    
     32 O     c    0.500000 *  0.750000 *  0.750000 *   0.51300    1.000000    
     33 O     c    0.250000 *  0.000000 *  0.250000 *   0.51300    1.000000    
     34 O     c    0.250000 *  0.000000 *  0.750000 *   0.51300    1.000000    
     35 O     c    0.250000 *  0.500000 *  0.250000 *   0.51300    1.000000    
     36 O     c    0.250000 *  0.500000 *  0.750000 *   0.51300    1.000000    
     37 O     c    0.750000 *  0.000000 *  0.250000 *   0.51300    1.000000    
     38 O     c    0.750000 *  0.000000 *  0.750000 *   0.51300    1.000000    
     39 O     c    0.750000 *  0.500000 *  0.250000 *   0.51300    1.000000    
     40 O     c    0.750000 *  0.500000 *  0.750000 *   0.51300    1.000000    
     41 La    s    0.000000 *  0.000000 *  0.000000 *  -2.14900    1.000000    
     42 La    s    0.000000 *  0.000000 *  0.500000 *  -2.14900    1.000000    
     43 La    s    0.000000 *  0.500000 *  0.000000 *  -2.14900    1.000000    
     44 La    s    0.000000 *  0.500000 *  0.500000 *  -2.14900    1.000000    
     45 La    s    0.500000 *  0.000000 *  0.000000 *  -2.14900    1.000000    
     46 La    s    0.500000 *  0.000000 *  0.500000 *  -2.14900    1.000000    
     47 La    s    0.500000 *  0.500000 *  0.000000 *  -2.14900    1.000000    
     48 La    s    0.500000 *  0.500000 *  0.500000 *  -2.14900    1.000000    
     49 Al    s    0.250000 *  0.250000 *  0.250000 *   2.95700    1.000000    
     50 Al    s    0.250000 *  0.250000 *  0.750000 *   2.95700    1.000000    
     51 Al    s    0.250000 *  0.750000 *  0.250000 *   2.95700    1.000000    
     52 Fe    s    0.250000 *  0.750000 *  0.750000 *   1.02900    1.000000    
     53 Fe    s    0.750000 *  0.250000 *  0.250000 *   1.02900    1.000000    
     54 Fe    s    0.750000 *  0.250000 *  0.750000 *   1.02900    1.000000    
     55 Fe    s    0.750000 *  0.750000 *  0.250000 *   1.02900    1.000000    
     56 Fe    s    0.750000 *  0.750000 *  0.750000 *   1.02900    1.000000    
     57 O     s    0.250000 *  0.250000 *  0.000000 *  -2.51300    1.000000    
     58 O     s    0.250000 *  0.250000 *  0.500000 *  -2.51300    1.000000    
     59 O     s    0.250000 *  0.750000 *  0.000000 *  -2.51300    1.000000    
     60 O     s    0.250000 *  0.750000 *  0.500000 *  -2.51300    1.000000    
     61 O     s    0.750000 *  0.250000 *  0.000000 *  -2.51300    1.000000    
     62 O     s    0.750000 *  0.250000 *  0.500000 *  -2.51300    1.000000    
     63 O     s    0.750000 *  0.750000 *  0.000000 *  -2.51300    1.000000    
     64 O     s    0.750000 *  0.750000 *  0.500000 *  -2.51300    1.000000    
     65 O     s    0.000000 *  0.250000 *  0.250000 *  -2.51300    1.000000    
     66 O     s    0.000000 *  0.250000 *  0.750000 *  -2.51300    1.000000    
     67 O     s    0.000000 *  0.750000 *  0.250000 *  -2.51300    1.000000    
     68 O     s    0.000000 *  0.750000 *  0.750000 *  -2.51300    1.000000    
     69 O     s    0.500000 *  0.250000 *  0.250000 *  -2.51300    1.000000    
     70 O     s    0.500000 *  0.250000 *  0.750000 *  -2.51300    1.000000    
     71 O     s    0.500000 *  0.750000 *  0.250000 *  -2.51300    1.000000    
     72 O     s    0.500000 *  0.750000 *  0.750000 *  -2.51300    1.000000    
     73 O     s    0.250000 *  0.000000 *  0.250000 *  -2.51300    1.000000    
     74 O     s    0.250000 *  0.000000 *  0.750000 *  -2.51300    1.000000    
     75 O     s    0.250000 *  0.500000 *  0.250000 *  -2.51300    1.000000    
     76 O     s    0.250000 *  0.500000 *  0.750000 *  -2.51300    1.000000    
     77 O     s    0.750000 *  0.000000 *  0.250000 *  -2.51300    1.000000    
     78 O     s    0.750000 *  0.000000 *  0.750000 *  -2.51300    1.000000    
     79 O     s    0.750000 *  0.500000 *  0.250000 *  -2.51300    1.000000    
     80 O     s    0.750000 *  0.500000 *  0.750000 *  -2.51300    1.000000    
--------------------------------------------------------------------------------



********************************************************************************
*  General input information                                                   *
********************************************************************************

  Species output for all configurations : 

--------------------------------------------------------------------------------
  Species    Type    Atomic    Atomic    Charge       Radii (Angs)     Library
                     Number     Mass       (e)     Cova   Ionic  VDW   Symbol
--------------------------------------------------------------------------------
    Fe       Core       26      55.85   1.971000   1.340  0.000  2.000          
    Fe       Shell      26       0.00   1.029000   1.340  0.000  2.000          
    Al       Core       13      26.98   0.043000   1.350  0.000  2.050          
    Al       Shell      13       0.00   2.957000   1.350  0.000  2.050          
    La       Core       57     138.91   5.149000   1.870  0.000  2.790          
    La       Shell      57       0.00  -2.149000   1.870  0.000  2.790          
    O        Core        8      16.00   0.513000   0.730  0.000  1.360          
    O        Shell       8       0.00  -2.513000   0.730  0.000  1.360          
--------------------------------------------------------------------------------


  Lattice summation method               =    Ewald          (3-D)
                                         =    Parry          (2-D)
                                         =    Saunders et al (1-D)
  Accuracy factor for lattice sums       =   12.000


  Analytic derivatives to be used

  Time limit = Infinity

  Maximum range for interatomic potentials =    100000.000000 Angstroms

  General interatomic potentials :

--------------------------------------------------------------------------------
Atom  Types   Potential      Parameter       Value         Units   Cutoffs(Ang)
  1     2                                                            Min /  Max 
--------------------------------------------------------------------------------
O    s Fe   s Buckingham    Buckingham A     3219.3350    eV        0.000 10.000
                            Buckingham rho  0.26410000    Ang       
                            Buckingham C     0.0000000    eV*Ang^6  
--------------------------------------------------------------------------------
O    s Al   s Buckingham    Buckingham A     2409.5050    eV        0.000 10.000
                            Buckingham rho  0.26490000    Ang       
                            Buckingham C     0.0000000    eV*Ang^6  
--------------------------------------------------------------------------------
O    s La   s Buckingham    Buckingham A     5436.8270    eV        0.000 10.000
                            Buckingham rho  0.29390000    Ang       
                            Buckingham C     0.0000000    eV*Ang^6  
--------------------------------------------------------------------------------
O    s O    s Buckingham    Buckingham A     25.410000    eV        0.000 12.000
                            Buckingham rho  0.69370000    Ang       
                            Buckingham C     32.320000    eV*Ang^6  
--------------------------------------------------------------------------------
Fe   c Fe   s Spring (c-s)  Spring k 2       179.58000    eV*Ang^-2 0.000  0.800
                            Spring k 4       0.0000000    eV*Ang^-4 
--------------------------------------------------------------------------------
Al   c Al   s Spring (c-s)  Spring k 2       403.98000    eV*Ang^-2 0.000  0.800
                            Spring k 4       0.0000000    eV*Ang^-4 
--------------------------------------------------------------------------------
La   c La   s Spring (c-s)  Spring k 2       173.90000    eV*Ang^-2 0.000  0.800
                            Spring k 4       0.0000000    eV*Ang^-4 
--------------------------------------------------------------------------------
O    c O    s Spring (c-s)  Spring k 2       20.530000    eV*Ang^-2 0.000  0.800
                            Spring k 4       0.0000000    eV*Ang^-4 
--------------------------------------------------------------------------------

********************************************************************************
*  Output for configuration   1                                                *
********************************************************************************


  Components of energy : 

--------------------------------------------------------------------------------
  Interatomic potentials     =         263.16677910 eV    
  Monopole - monopole (real) =        -714.63043649 eV    
  Monopole - monopole (recip)=        -672.57146413 eV    
  Monopole - monopole (total)=       -1387.20190062 eV    
--------------------------------------------------------------------------------
  Total lattice energy       =       -1124.03512152 eV    
--------------------------------------------------------------------------------
  Total lattice energy       =         -108452.2068 kJ/(mole unit cells)
--------------------------------------------------------------------------------


  Number of variables =      243

  Maximum number of calculations  =          1000
  Maximum Hessian update interval =            10
  Maximum step size               =   1.000000000
  Maximum parameter tolerance     =   0.000010000
  Maximum function  tolerance     =   0.000010000
  Maximum gradient  tolerance     =   0.001000000
  Maximum gradient  component     =   0.010000000

  Symmetry not applied to optimisation

  Cell parameters to be optimised using strains

  Newton-Raphson optimiser to be used

  BFGS hessian update to be used

  Hessian eigenvalue shifts to be used to ensure all values are positive

  Lower half triangular hessian to be used

  Start of bulk optimisation :

  Cycle:      0 Energy:     -1124.035122  Gnorm:      1.008389  CPU:    0.038
  ** Hessian lowest eigenvalue is negative =  -1.725E+01
  ** Hessian calculated **
  Cycle:      1 Energy:     -1133.900153  Gnorm:      0.053123  CPU:    0.066
  Cycle:      2 Energy:     -1133.944638  Gnorm:      0.009603  CPU:    0.086
  Cycle:      3 Energy:     -1133.946829  Gnorm:      0.007429  CPU:    0.106
  Cycle:      4 Energy:     -1133.962287  Gnorm:      0.015141  CPU:    0.148
  Cycle:      5 Energy:     -1134.008651  Gnorm:      0.050150  CPU:    0.186
  Cycle:      6 Energy:     -1134.095120  Gnorm:      0.057345  CPU:    0.219
  Cycle:      7 Energy:     -1134.137599  Gnorm:      0.026233  CPU:    0.239
  Cycle:      8 Energy:     -1134.145191  Gnorm:      0.023965  CPU:    0.259
  Cycle:      9 Energy:     -1134.148322  Gnorm:      0.023434  CPU:    0.280
  Cycle:     10 Energy:     -1134.152953  Gnorm:      0.012577  CPU:    0.304
  ** Hessian lowest eigenvalue is negative =  -1.483E+01
  ** Hessian calculated **
  Cycle:     11 Energy:     -1134.154584  Gnorm:      0.003293  CPU:    0.361
  Cycle:     12 Energy:     -1134.155505  Gnorm:      0.003227  CPU:    0.389
  Cycle:     13 Energy:     -1134.166464  Gnorm:      0.026425  CPU:    0.432
  Cycle:     14 Energy:     -1134.182757  Gnorm:      0.061584  CPU:    0.461
  Cycle:     15 Energy:     -1134.186369  Gnorm:      0.058076  CPU:    0.481
  Cycle:     16 Energy:     -1134.194657  Gnorm:      0.069272  CPU:    0.506
  Cycle:     17 Energy:     -1134.218173  Gnorm:      0.027747  CPU:    0.531
  Cycle:     18 Energy:     -1134.223801  Gnorm:      0.021670  CPU:    0.551
  Cycle:     19 Energy:     -1134.228223  Gnorm:      0.013736  CPU:    0.575
  Cycle:     20 Energy:     -1134.231036  Gnorm:      0.012724  CPU:    0.596
  ** Hessian lowest eigenvalue is negative =  -5.191E-01
  ** Hessian calculated **
  Cycle:     21 Energy:     -1134.233913  Gnorm:      0.018445  CPU:    0.653
  Cycle:     22 Energy:     -1134.236106  Gnorm:      0.003722  CPU:    0.673
  Cycle:     23 Energy:     -1134.236488  Gnorm:      0.001855  CPU:    0.694
  Cycle:     24 Energy:     -1134.236535  Gnorm:      0.000366  CPU:    0.718
  Cycle:     25 Energy:     -1134.236537  Gnorm:      0.000126  CPU:    0.738


  **** Optimisation achieved ****


  Final energy =   -1134.23653774 eV      
  Final Gnorm  =       0.00004264

  Components of energy : 

--------------------------------------------------------------------------------
  Interatomic potentials     =         187.95114153 eV    
  Monopole - monopole (real) =         -66.55533334 eV    
  Monopole - monopole (recip)=       -1255.63234593 eV    
  Monopole - monopole (total)=       -1322.18767927 eV    
--------------------------------------------------------------------------------
  Total lattice energy       =       -1134.23653774 eV    
--------------------------------------------------------------------------------
  Total lattice energy       =         -109436.4875 kJ/(mole unit cells)
--------------------------------------------------------------------------------

  Final fractional coordinates of atoms :

--------------------------------------------------------------------------------
   No.  Atomic        x           y          z          Radius
        Label       (Frac)      (Frac)     (Frac)       (Angs) 
--------------------------------------------------------------------------------
     1  La    c     0.000000    0.000000    0.000000    0.000000
     2  La    c     0.993223    0.999838    0.497106    0.000000
     3  La    c     0.013103    0.496228    0.982262    0.000000
     4  La    c     0.013717    0.497467    0.479850    0.000000
     5  La    c     0.486900    0.001735    0.996192    0.000000
     6  La    c     0.487511    0.002974    0.493782    0.000000
     7  La    c     0.507394    0.499365    0.978939    0.000000
     8  La    c     0.500622    0.499204    0.476047    0.000000
     9  Al    c     0.250308    0.249601    0.238021    0.000000
    10  Al    c     0.250308    0.249601    0.738020    0.000000
    11  Al    c     0.250308    0.749600    0.238020    0.000000
    12  Fe    c     0.250307    0.749600    0.738020    0.000000
    13  Fe    c     0.750307    0.249600    0.238021    0.000000
    14  Fe    c     0.750308    0.249600    0.738021    0.000000
    15  Fe    c     0.750307    0.749600    0.238021    0.000000
    16  Fe    c     0.750307    0.749601    0.738021    0.000000
    17  O     c     0.235867    0.240047    0.988910    0.000000
    18  O     c     0.264748    0.259155    0.487130    0.000000
    19  O     c     0.229638    0.759028    0.992944    0.000000
    20  O     c     0.270976    0.740171    0.483096    0.000000
    21  O     c     0.764231    0.279207    0.988292    0.000000
    22  O     c     0.736383    0.219995    0.487749    0.000000
    23  O     c     0.771100    0.719182    0.988708    0.000000
    24  O     c     0.729511    0.780016    0.487332    0.000000
    25  O     c     0.006603    0.237736    0.251569    0.000000
    26  O     c     0.006779    0.272455    0.722855    0.000000
    27  O     c     0.006892    0.762627    0.258366    0.000000
    28  O     c     0.001537    0.726803    0.715403    0.000000
    29  O     c     0.494013    0.261462    0.224470    0.000000
    30  O     c     0.493836    0.226744    0.753184    0.000000
    31  O     c     0.493722    0.736573    0.217673    0.000000
    32  O     c     0.499078    0.772398    0.760637    0.000000
    33  O     c     0.264120    0.000664    0.243689    0.000000
    34  O     c     0.231063    0.004672    0.726100    0.000000
    35  O     c     0.236495    0.498536    0.232350    0.000000
    36  O     c     0.269552    0.494528    0.749940    0.000000
    37  O     c     0.742384    0.999869    0.205751    0.000000
    38  O     c     0.779000    0.000256    0.761749    0.000000
    39  O     c     0.758230    0.499331    0.270291    0.000000
    40  O     c     0.721616    0.498945    0.714291    0.000000
    41  La    s     0.000606    0.000049    0.999020    0.000000
    42  La    s     0.994306    0.999949    0.495668    0.000000
    43  La    s     0.012331    0.496633    0.982962    0.000000
    44  La    s     0.012338    0.497571    0.480766    0.000000
    45  La    s     0.488279    0.001630    0.995276    0.000000
    46  La    s     0.488284    0.002569    0.493080    0.000000
    47  La    s     0.506310    0.499254    0.980376    0.000000
    48  La    s     0.500015    0.499154    0.477026    0.000000
    49  Al    s     0.250308    0.249601    0.238021    0.000000
    50  Al    s     0.250308    0.249601    0.738020    0.000000
    51  Al    s     0.250308    0.749600    0.238020    0.000000
    52  Fe    s     0.250307    0.749600    0.738020    0.000000
    53  Fe    s     0.750307    0.249600    0.238021    0.000000
    54  Fe    s     0.750308    0.249600    0.738021    0.000000
    55  Fe    s     0.750307    0.749600    0.238021    0.000000
    56  Fe    s     0.750307    0.749601    0.738021    0.000000
    57  O     s     0.234875    0.239469    0.989651    0.000000
    58  O     s     0.265740    0.259732    0.486387    0.000000
    59  O     s     0.228714    0.759641    0.993498    0.000000
    60  O     s     0.271900    0.739559    0.482542    0.000000
    61  O     s     0.764107    0.280007    0.988409    0.000000
    62  O     s     0.736507    0.219195    0.487632    0.000000
    63  O     s     0.770945    0.718563    0.989165    0.000000
    64  O     s     0.729666    0.780633    0.486876    0.000000
    65  O     s     0.008215    0.237622    0.251547    0.000000
    66  O     s     0.008700    0.273324    0.722384    0.000000
    67  O     s     0.008653    0.763006    0.258598    0.000000
    68  O     s     0.003093    0.726657    0.714831    0.000000
    69  O     s     0.492399    0.261576    0.224491    0.000000
    70  O     s     0.491915    0.225875    0.753654    0.000000
    71  O     s     0.491961    0.736194    0.217440    0.000000
    72  O     s     0.497521    0.772544    0.761209    0.000000
    73  O     s     0.266226    0.001456    0.242526    0.000000
    74  O     s     0.231350    0.005201    0.724369    0.000000
    75  O     s     0.234388    0.497744    0.233512    0.000000
    76  O     s     0.269264    0.493999    0.751670    0.000000
    77  O     s     0.743324    0.000204    0.204375    0.000000
    78  O     s     0.780745    0.000889    0.760986    0.000000
    79  O     s     0.757290    0.498996    0.271667    0.000000
    80  O     s     0.719871    0.498311    0.715053    0.000000
--------------------------------------------------------------------------------

  Final Cartesian lattice vectors (Angstroms) :

        7.771722    0.001167   -0.005773
        0.001167    7.778726    0.000271
       -0.005782    0.000271    7.782277


  Final cell parameters and derivatives :

--------------------------------------------------------------------------------
       a            7.771724 Angstrom     dE/de1(xx)    -0.000592 eV/strain
       b            7.778726 Angstrom     dE/de2(yy)    -0.000387 eV/strain
       c            7.782279 Angstrom     dE/de3(zz)    -0.000232 eV/strain
       alpha       89.996015 Degrees      dE/de4(yz)     0.000186 eV/strain
       beta        90.085130 Degrees      dE/de5(xz)    -0.000160 eV/strain
       gamma       89.982801 Degrees      dE/de6(xy)    -0.000000 eV/strain
--------------------------------------------------------------------------------

  Primitive cell volume =           470.470244 Angs**3

  Density of cell =      6.549042 g/cm**3

  Non-primitive cell volume =           470.470244 Angs**3


  Final internal derivatives :

--------------------------------------------------------------------------------
   No.  Atomic          a             b             c           Radius
        Label          (eV)          (eV)          (eV)        (eV/Angs)
--------------------------------------------------------------------------------
      1 La    c       0.000000      0.000000      0.000000      0.000000
      2 La    c      -0.000610     -0.002429      0.001710      0.000000
      3 La    c      -0.000888     -0.000770     -0.000128      0.000000
      4 La    c       0.000021      0.000174      0.000282      0.000000
      5 La    c      -0.000819      0.000569      0.000999      0.000000
      6 La    c       0.002675     -0.000667     -0.000334      0.000000
      7 La    c      -0.000107      0.001412     -0.001408      0.000000
      8 La    c       0.001390      0.001587     -0.000068      0.000000
      9 Al    c      -0.000031     -0.000025     -0.000044      0.000000
     10 Al    c      -0.000009     -0.000016     -0.000033      0.000000
     11 Al    c      -0.000025      0.000008     -0.000014      0.000000
     12 Fe    c      -0.000462      0.000014     -0.000834      0.000000
     13 Fe    c       0.000482     -0.000723      0.000581      0.000000
     14 Fe    c       0.000779      0.000106     -0.000605      0.000000
     15 Fe    c      -0.000049     -0.000188     -0.000313      0.000000
     16 Fe    c      -0.000391     -0.000351      0.000081      0.000000
     17 O     c       0.000275      0.000135     -0.000035      0.000000
     18 O     c      -0.000081     -0.000057      0.000022      0.000000
     19 O     c      -0.000063      0.000083      0.000106      0.000000
     20 O     c      -0.000000      0.000112     -0.000076      0.000000
     21 O     c      -0.000068     -0.000213     -0.000045      0.000000
     22 O     c       0.000069      0.000169     -0.000179      0.000000
     23 O     c       0.000077      0.000423     -0.000108      0.000000
     24 O     c       0.000089     -0.000138     -0.000030      0.000000
     25 O     c       0.000000     -0.000000      0.000229      0.000000
     26 O     c       0.000045      0.000448      0.000054      0.000000
     27 O     c      -0.000127     -0.000444     -0.000106      0.000000
     28 O     c      -0.000074     -0.000180     -0.000245      0.000000
     29 O     c      -0.000198     -0.000109     -0.000125      0.000000
     30 O     c       0.000019     -0.000154     -0.000225      0.000000
     31 O     c      -0.000027      0.000036      0.000155      0.000000
     32 O     c       0.000130      0.000000      0.000013      0.000000
     33 O     c       0.000123      0.000160     -0.000492      0.000000
     34 O     c       0.000116      0.000019      0.000004      0.000000
     35 O     c       0.000002     -0.000154      0.000130      0.000000
     36 O     c      -0.000088     -0.000012     -0.000136      0.000000
     37 O     c       0.000028      0.000000      0.000114      0.000000
     38 O     c      -0.000777     -0.000026      0.000332      0.000000
     39 O     c      -0.000030      0.000011     -0.000307      0.000000
     40 O     c       0.000212      0.000026      0.000270      0.000000
     41 La    s       0.001247      0.001192      0.000889      0.000000
     42 La    s       0.000006      0.003258     -0.002300      0.000000
     43 La    s       0.000435      0.000880      0.000237      0.000000
     44 La    s      -0.000339     -0.000365     -0.000690      0.000000
     45 La    s       0.000907     -0.000481     -0.001096      0.000000
     46 La    s      -0.003099      0.000763      0.000443      0.000000
     47 La    s       0.000987     -0.001972      0.001869      0.000000
     48 La    s      -0.001838     -0.002014     -0.000397      0.000000
     49 Al    s       0.000430      0.000149      0.000075      0.000000
     50 Al    s      -0.000159     -0.000089     -0.000122      0.000000
     51 Al    s       0.000198     -0.000334     -0.000098      0.000000
     52 Fe    s       0.000409      0.000154      0.000572      0.000000
     53 Fe    s      -0.000366      0.000633     -0.000270      0.000000
     54 Fe    s      -0.000862      0.000196      0.000664      0.000000
     55 Fe    s       0.000276      0.000187      0.000378      0.000000
     56 Fe    s       0.000105      0.000210     -0.000139      0.000000
     57 O     s      -0.000519      0.000296     -0.000318      0.000000
     58 O     s       0.000818      0.000577      0.000030      0.000000
     59 O     s      -0.000293     -0.000523     -0.000392      0.000000
     60 O     s       0.000601     -0.000207      0.000062      0.000000
     61 O     s      -0.000109      0.001248     -0.000081      0.000000
     62 O     s      -0.000170     -0.000584      0.000360      0.000000
     63 O     s      -0.000360     -0.001132      0.000144      0.000000
     64 O     s      -0.000303      0.000067     -0.000095      0.000000
     65 O     s      -0.000092     -0.001094     -0.000523      0.000000
     66 O     s      -0.000206     -0.001288     -0.000047      0.000000
     67 O     s       0.000201      0.000641      0.000046      0.000000
     68 O     s       0.000076      0.000804      0.000822      0.000000
     69 O     s       0.000295      0.000561      0.000261      0.000000
     70 O     s      -0.000029      0.000355      0.000171      0.000000
     71 O     s      -0.000101     -0.000183     -0.000378      0.000000
     72 O     s      -0.000569     -0.000151     -0.000104      0.000000
     73 O     s      -0.000889     -0.000508      0.000982      0.000000
     74 O     s      -0.000301     -0.000142     -0.000073      0.000000
     75 O     s       0.000805      0.000463     -0.000155      0.000000
     76 O     s       0.000526      0.000180      0.000247      0.000000
     77 O     s       0.000216     -0.000065     -0.000024      0.000000
     78 O     s       0.001315      0.000116     -0.000437      0.000000
     79 O     s      -0.000491      0.000100      0.000615      0.000000
     80 O     s      -0.000522     -0.000062     -0.000636      0.000000
--------------------------------------------------------------------------------
  Maximum abs         0.003099      0.003258      0.002300      0.000000
--------------------------------------------------------------------------------


  Time to end of optimisation =       0.7586 seconds


  Peak dynamic memory used =       3.39 MB 


  Timing analysis for GULP :

--------------------------------------------------------------------------------
  Task / Subroutine                                          Time (Seconds)
--------------------------------------------------------------------------------
  Calculation of reciprocal space energy and derivatives          0.0445
  Calculation of real space energy and derivatives                0.6947
  Calculation and manipulation of Hessian matrix                  0.0066
  Calculation of matrix inversion                                 0.0056
--------------------------------------------------------------------------------
  Total CPU time                                                  0.7586
--------------------------------------------------------------------------------


  Job Finished at 17:31.36  5th April      2026                               

