Mg28Ni4O32
   1.00000000
   8.440349565  -0.000003760  -0.000000000
  -0.000003760   8.440349565  -0.000000000
  -0.000000000  -0.000000000   8.440349710
  Ni  Mg  O
  4  28  32
Direct configuration=     1
   0.000028410   0.000028410   0.000000000
   0.999948322   0.999948322   0.500000000
   0.499971623   0.499971623   0.000000000
   0.250011695   0.250011695   0.000000000
   0.000055424   0.499947072   0.000000000
   0.999975715   0.500016586   0.500000000
   0.499947072   0.000055424   0.000000000
   0.500016586   0.999975715   0.500000000
   0.500010095   0.500010095   0.500000000
   0.000060718   0.249764883   0.249951618
   0.000060718   0.249764883   0.750048382
   0.999986155   0.750228779   0.250017018
   0.999986155   0.750228779   0.749982982
   0.499940264   0.250093838   0.249858122
   0.499940264   0.250093838   0.750141878
   0.500020451   0.749911521   0.249927455
   0.500020451   0.749911521   0.750072545
   0.249764883   0.000060718   0.249951618
   0.249764883   0.000060718   0.750048382
   0.250093838   0.499940264   0.249858122
   0.250093838   0.499940264   0.750141878
   0.750228779   0.999986155   0.250017018
   0.750228779   0.999986155   0.749982982
   0.749911521   0.500020451   0.249927455
   0.749911521   0.500020451   0.750072545
   0.249859271   0.249859271   0.500000000
   0.249972159   0.750023389   0.000000000
   0.249888975   0.750114871   0.500000000
   0.750023389   0.249972159   0.000000000
   0.750114871   0.249888975   0.500000000
   0.750025536   0.750025536   0.000000000
   0.750106696   0.750106696   0.500000000
   0.250025764   0.250025764   0.250086223
   0.250025764   0.250025764   0.749913777
   0.250011821   0.749979892   0.249941202
   0.250011821   0.749979892   0.750058798
   0.749979892   0.250011821   0.249941202
   0.749979892   0.250011821   0.750058798
   0.749989482   0.749989482   0.249971961
   0.749989482   0.749989482   0.750028039
   0.250169727   0.999953271   0.000000000
   0.250232927   0.000090948   0.500000000
   0.249797661   0.500054415   0.000000000
   0.250031773   0.499921519   0.500000000
   0.749797365   0.000051725   0.000000000
   0.749781507   0.000020399   0.500000000
   0.750230851   0.499943788   0.000000000
   0.749976482   0.499981592   0.500000000
   0.999953271   0.250169727   0.000000000
   0.000090948   0.250232927   0.500000000
   0.000051725   0.749797365   0.000000000
   0.000020399   0.749781507   0.500000000
   0.500054415   0.249797661   0.000000000
   0.499921519   0.250031773   0.500000000
   0.499943788   0.750230851   0.000000000
   0.499981592   0.749976482   0.500000000
   0.000032245   0.000032245   0.249870202
   0.000032245   0.000032245   0.750129798
   0.000014296   0.499994574   0.249944795
   0.000014296   0.499994574   0.750055205
   0.499994574   0.000014296   0.249944795
   0.499994574   0.000014296   0.750055205
   0.499949422   0.499949422   0.250121916
   0.499949422   0.499949422   0.749878084
Mg28Ni4O32
   1.00000000
   8.442201280  -0.000024963   0.000000000
  -0.000024963   8.442201280   0.000000000
   0.000000000   0.000000000   8.442202338
  Ni  Mg  O
  4  28  32
Direct configuration=     2
   0.000149916   0.000149916   0.000000000
   0.999728057   0.999728057   0.500000000
   0.499851600   0.499851600   0.000000000
   0.250057221   0.250057221   0.000000000
   0.000299875   0.499713833   0.000000000
   0.999896160   0.500064303   0.500000000
   0.499713833   0.000299875   0.000000000
   0.500064303   0.999896160   0.500000000
   0.500018176   0.500018176   0.500000000
   0.000334798   0.248785889   0.249709114
   0.000334798   0.248785889   0.750290886
   0.999951601   0.751179323   0.250044085
   0.999951601   0.751179323   0.749955915
   0.499671031   0.250449352   0.249252315
   0.499671031   0.250449352   0.750747685
   0.500085129   0.749582218   0.249599877
   0.500085129   0.749582218   0.750400123
   0.248785889   0.000334798   0.249709114
   0.248785889   0.000334798   0.750290886
   0.250449352   0.499671031   0.249252315
   0.250449352   0.499671031   0.750747685
   0.751179323   0.999951601   0.250044085
   0.751179323   0.999951601   0.749955915
   0.749582218   0.500085129   0.249599877
   0.749582218   0.500085129   0.750400123
   0.249256124   0.249256124   0.500000000
   0.249826213   0.750146865   0.000000000
   0.249424275   0.750596740   0.500000000
   0.750146865   0.249826213   0.000000000
   0.750596740   0.249424275   0.500000000
   0.750160281   0.750160281   0.000000000
   0.750550737   0.750550737   0.500000000
   0.250112888   0.250112888   0.250411734
   0.250112888   0.250112888   0.749588266
   0.250037397   0.749920754   0.249675258
   0.250037397   0.749920754   0.750324742
   0.749920754   0.250037397   0.249675258
   0.749920754   0.250037397   0.750324742
   0.749969530   0.749969530   0.249840777
   0.749969530   0.749969530   0.750159223
   0.250867946   0.999794201   0.000000000
   0.251189279   0.000483216   0.500000000
   0.248963973   0.500260772   0.000000000
   0.250187209   0.499588111   0.500000000
   0.748961446   0.000272075   0.000000000
   0.748884517   0.000100629   0.500000000
   0.751179815   0.499704726   0.000000000
   0.749851013   0.499911775   0.500000000
   0.999794201   0.250867946   0.000000000
   0.000483216   0.251189279   0.500000000
   0.000272075   0.748961446   0.000000000
   0.000100629   0.748884517   0.500000000
   0.500260772   0.248963973   0.000000000
   0.499588111   0.250187209   0.500000000
   0.499704726   0.751179815   0.000000000
   0.499911775   0.749851013   0.500000000
   0.000180270   0.000180270   0.249277135
   0.000180270   0.000180270   0.750722865
   0.000079824   0.499968633   0.249698654
   0.000079824   0.499968633   0.750301346
   0.499968633   0.000079824   0.249698654
   0.499968633   0.000079824   0.750301346
   0.499720826   0.499720826   0.250571486
   0.499720826   0.499720826   0.749428514
Mg28Ni4O32
   1.00000000
   8.442765528  -0.000032373   0.000000000
  -0.000032373   8.442765528   0.000000000
   0.000000000   0.000000000   8.442766189
  Ni  Mg  O
  4  28  32
Direct configuration=     3
   0.000163726   0.000163726   0.000000000
   0.999703551   0.999703551   0.500000000
   0.499839346   0.499839346   0.000000000
   0.250058753   0.250058753   0.000000000
   0.000330675   0.499684059   0.000000000
   0.999908904   0.500048392   0.500000000
   0.499684059   0.000330675   0.000000000
   0.500048392   0.999908904   0.500000000
   0.499987709   0.499987709   0.500000000
   0.000376501   0.248709026   0.249651672
   0.000376501   0.248709026   0.750348328
   0.999969684   0.751253348   0.250006320
   0.999969684   0.751253348   0.749993680
   0.499631189   0.250445302   0.249189639
   0.499631189   0.250445302   0.750810361
   0.500071908   0.749590612   0.249550412
   0.500071908   0.749590612   0.750449588
   0.248709026   0.000376501   0.249651672
   0.248709026   0.000376501   0.750348328
   0.250445302   0.499631189   0.249189639
   0.250445302   0.499631189   0.750810361
   0.751253348   0.999969684   0.250006320
   0.751253348   0.999969684   0.749993680
   0.749590612   0.500071908   0.249550412
   0.749590612   0.500071908   0.750449588
   0.249192439   0.249192439   0.500000000
   0.249787048   0.750180770   0.000000000
   0.249385653   0.750640244   0.500000000
   0.750180770   0.249787048   0.000000000
   0.750640244   0.249385653   0.500000000
   0.750197426   0.750197426   0.000000000
   0.750585268   0.750585268   0.500000000
   0.250100379   0.250100379   0.250405676
   0.250100379   0.250100379   0.749594324
   0.250016921   0.749939880   0.249633918
   0.250016921   0.749939880   0.750366082
   0.749939880   0.250016921   0.249633918
   0.749939880   0.250016921   0.750366082
   0.749990690   0.749990690   0.249814733
   0.749990690   0.749990690   0.750185267
   0.250914552   0.999815368   0.000000000
   0.251253268   0.000524954   0.500000000
   0.248906973   0.500258569   0.000000000
   0.250218516   0.499554833   0.500000000
   0.748902279   0.000294630   0.000000000
   0.748825295   0.000104180   0.500000000
   0.751245194   0.499680231   0.000000000
   0.749817220   0.499909897   0.500000000
   0.999815368   0.250914552   0.000000000
   0.000524954   0.251253268   0.500000000
   0.000294630   0.748902279   0.000000000
   0.000104180   0.748825295   0.500000000
   0.500258569   0.248906973   0.000000000
   0.499554833   0.250218516   0.500000000
   0.499680231   0.751245194   0.000000000
   0.499909897   0.749817220   0.500000000
   0.000204264   0.000204264   0.249179331
   0.000204264   0.000204264   0.750820669
   0.000091724   0.499962360   0.249664331
   0.000091724   0.499962360   0.750335669
   0.499962360   0.000091724   0.249664331
   0.499962360   0.000091724   0.750335669
   0.499686251   0.499686251   0.250550054
   0.499686251   0.499686251   0.749449946
Mg28Ni4O32
   1.00000000
   8.451343519  -0.000147397  -0.000000000
  -0.000147397   8.451343519  -0.000000000
  -0.000000000  -0.000000000   8.451335574
  Ni  Mg  O
  4  28  32
Direct configuration=     4
   0.000316479   0.000316479   0.000000000
   0.999440342   0.999440342   0.500000000
   0.499717527   0.499717527   0.000000000
   0.250061910   0.250061910   0.000000000
   0.000672443   0.499350786   0.000000000
   0.000165582   0.499758667   0.500000000
   0.499350786   0.000672443   0.000000000
   0.499758667   0.000165582   0.500000000
   0.499481992   0.499481992   0.500000000
   0.000881698   0.248097380   0.248863339
   0.000881698   0.248097380   0.751136661
   0.000285663   0.751838761   0.249368851
   0.000285663   0.751838761   0.750631149
   0.499159430   0.250147172   0.248557506
   0.499159430   0.250147172   0.751442494
   0.499815859   0.749937197   0.248955153
   0.499815859   0.749937197   0.751044847
   0.248097380   0.000881698   0.248863339
   0.248097380   0.000881698   0.751136661
   0.250147172   0.499159430   0.248557506
   0.250147172   0.499159430   0.751442494
   0.751838761   0.000285663   0.249368851
   0.751838761   0.000285663   0.750631149
   0.749937197   0.499815859   0.248955153
   0.749937197   0.499815859   0.751044847
   0.248542712   0.248542712   0.500000000
   0.249242635   0.750655468   0.000000000
   0.249064623   0.751038351   0.500000000
   0.750655468   0.249242635   0.000000000
   0.751038351   0.249064623   0.500000000
   0.750717258   0.750717258   0.000000000
   0.750846575   0.750846575   0.500000000
   0.249831775   0.249831775   0.250084556
   0.249831775   0.249831775   0.749915444
   0.249657408   0.750304018   0.249124021
   0.249657408   0.750304018   0.750875979
   0.750304018   0.249657408   0.249124021
   0.750304018   0.249657408   0.750875979
   0.750357855   0.750357855   0.249455002
   0.750357855   0.750357855   0.750544998
   0.251216925   0.000276870   0.000000000
   0.251650494   0.000945688   0.500000000
   0.248517296   0.500088627   0.000000000
   0.250608568   0.499225165   0.500000000
   0.748487221   0.000525068   0.000000000
   0.748461799   0.000123162   0.500000000
   0.751702236   0.499429410   0.000000000
   0.749357119   0.499904815   0.500000000
   0.000276870   0.251216925   0.000000000
   0.000945688   0.251650494   0.500000000
   0.000525068   0.748487221   0.000000000
   0.000123162   0.748461799   0.500000000
   0.500088627   0.248517296   0.000000000
   0.499225165   0.250608568   0.500000000
   0.499429410   0.751702236   0.000000000
   0.499904815   0.749357119   0.500000000
   0.000501836   0.000501836   0.247953671
   0.000501836   0.000501836   0.752046329
   0.000253137   0.499867339   0.249262274
   0.000253137   0.499867339   0.750737726
   0.499867339   0.000253137   0.249262274
   0.499867339   0.000253137   0.750737726
   0.499266564   0.499266564   0.249867782
   0.499266564   0.499266564   0.750132218
Mg28Ni4O32
   1.00000000
   8.458178902  -0.000240895  -0.000000000
  -0.000240895   8.458178902  -0.000000000
  -0.000000000  -0.000000000   8.458162136
  Ni  Mg  O
  4  28  32
Direct configuration=     5
   0.000397565   0.000397565   0.000000000
   0.999314927   0.999314927   0.500000000
   0.499671411   0.499671411   0.000000000
   0.250062904   0.250062904   0.000000000
   0.000831861   0.499192318   0.000000000
   0.000380937   0.499529006   0.500000000
   0.499192318   0.000831861   0.000000000
   0.499529006   0.000380937   0.500000000
   0.499098404   0.499098404   0.500000000
   0.001158418   0.248015705   0.248353870
   0.001158418   0.248015705   0.751646130
   0.000528776   0.751915391   0.248881110
   0.000528776   0.751915391   0.751118890
   0.498915031   0.249794889   0.248305547
   0.498915031   0.249794889   0.751694453
   0.499604126   0.750308050   0.248630964
   0.499604126   0.750308050   0.751369036
   0.248015705   0.001158418   0.248353870
   0.248015705   0.001158418   0.751646130
   0.249794889   0.498915031   0.248305547
   0.249794889   0.498915031   0.751694453
   0.751915391   0.000528776   0.248881110
   0.751915391   0.000528776   0.751118890
   0.750308050   0.499604126   0.248630964
   0.750308050   0.499604126   0.751369036
   0.248278425   0.248278425   0.500000000
   0.248894828   0.750965067   0.000000000
   0.249009019   0.751159756   0.500000000
   0.750965067   0.248894828   0.000000000
   0.751159756   0.249009019   0.500000000
   0.751055025   0.751055025   0.000000000
   0.750852648   0.750852648   0.500000000
   0.249589294   0.249589294   0.249708926
   0.249589294   0.249589294   0.750291074
   0.249368200   0.750620682   0.248829543
   0.249368200   0.750620682   0.751170457
   0.750620682   0.249368200   0.248829543
   0.750620682   0.249368200   0.751170457
   0.750652331   0.750652331   0.249201852
   0.750652331   0.750652331   0.750798148
   0.251177679   0.000699635   0.000000000
   0.251544451   0.001101610   0.500000000
   0.248531478   0.499887820   0.000000000
   0.250802364   0.499097057   0.500000000
   0.748499462   0.000624098   0.000000000
   0.748558687   0.000130213   0.500000000
   0.751706582   0.499319188   0.000000000
   0.749079175   0.499891052   0.500000000
   0.000699635   0.251177679   0.000000000
   0.001101610   0.251544451   0.500000000
   0.000624098   0.748499462   0.000000000
   0.000130213   0.748558687   0.500000000
   0.499887820   0.248531478   0.000000000
   0.499097057   0.250802364   0.500000000
   0.499319188   0.751706582   0.000000000
   0.499891052   0.749079175   0.500000000
   0.000670182   0.000670182   0.247235686
   0.000670182   0.000670182   0.752764314
   0.000365665   0.499789118   0.249052588
   0.000365665   0.499789118   0.750947412
   0.499789118   0.000365665   0.249052588
   0.499789118   0.000365665   0.750947412
   0.499031815   0.499031815   0.249125824
   0.499031815   0.499031815   0.750874176
Mg28Ni4O32
   1.00000000
   8.465722252  -0.000345786  -0.000000000
  -0.000345786   8.465722252  -0.000000000
  -0.000000000  -0.000000000   8.465694819
  Ni  Mg  O
  4  28  32
Direct configuration=     6
   0.000455838   0.000455838   0.000000000
   0.999253724   0.999253724   0.500000000
   0.499667108   0.499667108   0.000000000
   0.250083042   0.250083042   0.000000000
   0.000888724   0.499132492   0.000000000
   0.000573490   0.499330711   0.500000000
   0.499132492   0.000888724   0.000000000
   0.499330711   0.000573490   0.500000000
   0.498769357   0.498769357   0.500000000
   0.001313412   0.248239121   0.247977302
   0.001313412   0.248239121   0.752022698
   0.000729913   0.751701760   0.248464413
   0.000729913   0.751701760   0.751535587
   0.498801566   0.249408085   0.248252987
   0.498801566   0.249408085   0.751747013
   0.499413113   0.750691410   0.248445211
   0.499413113   0.750691410   0.751554789
   0.248239121   0.001313412   0.247977302
   0.248239121   0.001313412   0.752022698
   0.249408085   0.498801566   0.248252987
   0.249408085   0.498801566   0.751747013
   0.751701760   0.000729913   0.248464413
   0.751701760   0.000729913   0.751535587
   0.750691410   0.499413113   0.248445211
   0.750691410   0.499413113   0.751554789
   0.248217120   0.248217120   0.500000000
   0.248656505   0.751191628   0.000000000
   0.249110629   0.751133922   0.500000000
   0.751191628   0.248656505   0.000000000
   0.751133922   0.249110629   0.500000000
   0.751297638   0.751297638   0.000000000
   0.750689546   0.750689546   0.500000000
   0.249349531   0.249349531   0.249279219
   0.249349531   0.249349531   0.750720781
   0.249103234   0.750943100   0.248635281
   0.249103234   0.750943100   0.751364719
   0.750943100   0.249103234   0.248635281
   0.750943100   0.249103234   0.751364719
   0.750924859   0.750924859   0.248969024
   0.750924859   0.750924859   0.751030976
   0.250942612   0.001131420   0.000000000
   0.251094978   0.001098595   0.500000000
   0.248763563   0.499669732   0.000000000
   0.250845685   0.499072176   0.500000000
   0.748764354   0.000661401   0.000000000
   0.748957383   0.000152105   0.500000000
   0.751478077   0.499272346   0.000000000
   0.748914550   0.499833704   0.500000000
   0.001131420   0.250942612   0.000000000
   0.001098595   0.251094978   0.500000000
   0.000661401   0.748764354   0.000000000
   0.000152105   0.748957383   0.500000000
   0.499669732   0.248763563   0.000000000
   0.499072176   0.250845685   0.500000000
   0.499272346   0.751478077   0.000000000
   0.499833704   0.748914550   0.500000000
   0.000770274   0.000770274   0.246760002
   0.000770274   0.000770274   0.753239998
   0.000469889   0.499700653   0.248946937
   0.000469889   0.499700653   0.751053063
   0.499700653   0.000469889   0.248946937
   0.499700653   0.000469889   0.751053063
   0.498888001   0.498888001   0.248264488
   0.498888001   0.498888001   0.751735512
Mg28Ni4O32
   1.00000000
   8.471472199  -0.000427048  -0.000000000
  -0.000427048   8.471472199  -0.000000000
  -0.000000000  -0.000000000   8.471436896
  Ni  Mg  O
  4  28  32
Direct configuration=     7
   0.000484528   0.000484528   0.000000000
   0.999263621   0.999263621   0.500000000
   0.499695830   0.499695830   0.000000000
   0.250133149   0.250133149   0.000000000
   0.000834832   0.499184469   0.000000000
   0.000626280   0.499276345   0.500000000
   0.499184469   0.000834832   0.000000000
   0.499276345   0.000626280   0.500000000
   0.498669675   0.498669675   0.500000000
   0.001288320   0.248550459   0.247910526
   0.001288320   0.248550459   0.752089474
   0.000770598   0.751406222   0.248350963
   0.000770598   0.751406222   0.751649037
   0.498863802   0.249238571   0.248361146
   0.498863802   0.249238571   0.751638854
   0.499352653   0.750836559   0.248459091
   0.499352653   0.750836559   0.751540909
   0.248550459   0.001288320   0.247910526
   0.248550459   0.001288320   0.752089474
   0.249238571   0.498863802   0.248361146
   0.249238571   0.498863802   0.751638854
   0.751406222   0.000770598   0.248350963
   0.751406222   0.000770598   0.751649037
   0.750836559   0.499352653   0.248459091
   0.750836559   0.499352653   0.751540909
   0.248322431   0.248322431   0.500000000
   0.248651155   0.751224972   0.000000000
   0.249270126   0.751028845   0.500000000
   0.751224972   0.248651155   0.000000000
   0.751028845   0.249270126   0.500000000
   0.751322799   0.751322799   0.000000000
   0.750473747   0.750473747   0.500000000
   0.249252925   0.249252925   0.249055445
   0.249252925   0.249252925   0.750944555
   0.249009305   0.751102244   0.248612974
   0.249009305   0.751102244   0.751387026
   0.751102244   0.249009305   0.248612974
   0.751102244   0.249009305   0.751387026
   0.751026548   0.751026548   0.248853242
   0.751026548   0.751026548   0.751146758
   0.250710629   0.001334161   0.000000000
   0.250597842   0.000967943   0.500000000
   0.248993567   0.499581376   0.000000000
   0.250700883   0.499126595   0.500000000
   0.749062615   0.000645720   0.000000000
   0.749379631   0.000194065   0.500000000
   0.751254596   0.499283505   0.000000000
   0.748949656   0.499733097   0.500000000
   0.001334161   0.250710629   0.000000000
   0.000967943   0.250597842   0.500000000
   0.000645720   0.749062615   0.000000000
   0.000194065   0.749379631   0.500000000
   0.499581376   0.248993567   0.000000000
   0.499126595   0.250700883   0.500000000
   0.499283505   0.751254596   0.000000000
   0.499733097   0.748949656   0.500000000
   0.000761278   0.000761278   0.246712274
   0.000761278   0.000761278   0.753287726
   0.000524320   0.499637812   0.248983247
   0.000524320   0.499637812   0.751016753
   0.499637812   0.000524320   0.248983247
   0.499637812   0.000524320   0.751016753
   0.498889042   0.498889042   0.247760696
   0.498889042   0.498889042   0.752239304
Mg28Ni4O32
   1.00000000
   8.479868250  -0.000546934  -0.000000000
  -0.000546934   8.479868250  -0.000000000
  -0.000000000  -0.000000000   8.479822457
  Ni  Mg  O
  4  28  32
Direct configuration=     8
   0.000523943   0.000523943   0.000000000
   0.999317870   0.999317870   0.500000000
   0.499754691   0.499754691   0.000000000
   0.250252243   0.250252243   0.000000000
   0.000682273   0.499341268   0.000000000
   0.000559493   0.499334645   0.500000000
   0.499341268   0.000682273   0.000000000
   0.499334645   0.000559493   0.500000000
   0.498731890   0.498731890   0.500000000
   0.001114848   0.248963001   0.248078548
   0.001114848   0.248963001   0.751921452
   0.000673146   0.751016641   0.248479555
   0.000673146   0.751016641   0.751520445
   0.499097296   0.249242459   0.248590972
   0.499097296   0.249242459   0.751409028
   0.499392467   0.750777914   0.248617514
   0.499392467   0.750777914   0.751382486
   0.248963001   0.001114848   0.248078548
   0.248963001   0.001114848   0.751921452
   0.249242459   0.499097296   0.248590972
   0.249242459   0.499097296   0.751409028
   0.751016641   0.000673146   0.248479555
   0.751016641   0.000673146   0.751520445
   0.750777914   0.499392467   0.248617514
   0.750777914   0.499392467   0.751382486
   0.248546846   0.248546846   0.500000000
   0.248851243   0.751108024   0.000000000
   0.249492615   0.750868442   0.500000000
   0.751108024   0.248851243   0.000000000
   0.750868442   0.249492615   0.500000000
   0.751167530   0.751167530   0.000000000
   0.750158887   0.750158887   0.500000000
   0.249265962   0.249265962   0.248962583
   0.249265962   0.249265962   0.751037417
   0.249044216   0.751171443   0.248708582
   0.249044216   0.751171443   0.751291418
   0.751171443   0.249044216   0.248708582
   0.751171443   0.249044216   0.751291418
   0.751000276   0.751000276   0.248780880
   0.751000276   0.751000276   0.751219120
   0.250465446   0.001403069   0.000000000
   0.249919127   0.000699667   0.500000000
   0.249217979   0.499610320   0.000000000
   0.250323381   0.499238040   0.500000000
   0.749430111   0.000603677   0.000000000
   0.749917485   0.000276804   0.500000000
   0.751063716   0.499325078   0.000000000
   0.749170485   0.499531442   0.500000000
   0.001403069   0.250465446   0.000000000
   0.000699667   0.249919127   0.500000000
   0.000603677   0.749430111   0.000000000
   0.000276804   0.749917485   0.500000000
   0.499610320   0.249217979   0.000000000
   0.499238040   0.250323381   0.500000000
   0.499325078   0.751063716   0.000000000
   0.499531442   0.749170485   0.500000000
   0.000659827   0.000659827   0.246965613
   0.000659827   0.000659827   0.753034387
   0.000564756   0.499567089   0.249149632
   0.000564756   0.499567089   0.750850368
   0.499567089   0.000564756   0.249149632
   0.499567089   0.000564756   0.750850368
   0.499004794   0.499004794   0.247413831
   0.499004794   0.499004794   0.752586169
Mg28Ni4O32
   1.00000000
   8.489629926  -0.000687747  -0.000000000
  -0.000687747   8.489629926  -0.000000000
  -0.000000000  -0.000000000   8.489572885
  Ni  Mg  O
  4  28  32
Direct configuration=     9
   0.000575322   0.000575322   0.000000000
   0.999397694   0.999397694   0.500000000
   0.499820193   0.499820193   0.000000000
   0.250423271   0.250423271   0.000000000
   0.000478783   0.499564683   0.000000000
   0.000339485   0.499532320   0.500000000
   0.499564683   0.000478783   0.000000000
   0.499532320   0.000339485   0.500000000
   0.498996455   0.498996455   0.500000000
   0.000825177   0.249235511   0.248509072
   0.000825177   0.249235511   0.751490928
   0.000415750   0.750762288   0.248918363
   0.000415750   0.750762288   0.751081637
   0.499459648   0.249532773   0.248841291
   0.499459648   0.249532773   0.751158709
   0.499564372   0.750415220   0.248879974
   0.499564372   0.750415220   0.751120026
   0.249235511   0.000825177   0.248509072
   0.249235511   0.000825177   0.751490928
   0.249532773   0.499459648   0.248841291
   0.249532773   0.499459648   0.751158709
   0.750762288   0.000415750   0.248918363
   0.750762288   0.000415750   0.751081637
   0.750415220   0.499564372   0.248879974
   0.750415220   0.499564372   0.751120026
   0.248780886   0.248780886   0.500000000
   0.249252628   0.750834995   0.000000000
   0.249644387   0.750751627   0.500000000
   0.750834995   0.249252628   0.000000000
   0.750751627   0.249644387   0.500000000
   0.750826272   0.750826272   0.000000000
   0.749895169   0.749895169   0.500000000
   0.249460370   0.249460370   0.249145737
   0.249460370   0.249460370   0.750854263
   0.249272976   0.751048053   0.248920038
   0.249272976   0.751048053   0.751079962
   0.751048053   0.249272976   0.248920038
   0.751048053   0.249272976   0.751079962
   0.750768782   0.750768782   0.248824117
   0.750768782   0.750768782   0.751175883
   0.250385740   0.001225569   0.000000000
   0.249380683   0.000387500   0.500000000
   0.249257439   0.499829274   0.000000000
   0.249812514   0.499354724   0.500000000
   0.749649546   0.000558582   0.000000000
   0.750276008   0.000361029   0.500000000
   0.751096768   0.499380987   0.000000000
   0.749534188   0.499288879   0.500000000
   0.001225569   0.250385740   0.000000000
   0.000387500   0.249380683   0.500000000
   0.000558582   0.749649546   0.000000000
   0.000361029   0.750276008   0.500000000
   0.499829274   0.249257439   0.000000000
   0.499354724   0.249812514   0.500000000
   0.499380987   0.751096768   0.000000000
   0.499288879   0.749534188   0.500000000
   0.000474138   0.000474138   0.247502076
   0.000474138   0.000474138   0.752497924
   0.000558756   0.499529017   0.249423966
   0.000558756   0.499529017   0.750576034
   0.499529017   0.000558756   0.249423966
   0.499529017   0.000558756   0.750576034
   0.499230370   0.499230370   0.247546679
   0.499230370   0.499230370   0.752453321
Mg28Ni4O32
   1.00000000
   8.497016799  -0.000796659  -0.000000000
  -0.000796659   8.497016799  -0.000000000
  -0.000000000  -0.000000000   8.496951701
  Ni  Mg  O
  4  28  32
Direct configuration=     10
   0.000613974   0.000613974   0.000000000
   0.999464733   0.999464733   0.500000000
   0.499855910   0.499855910   0.000000000
   0.250556219   0.250556219   0.000000000
   0.000336997   0.499744340   0.000000000
   0.000068972   0.499774135   0.500000000
   0.499744340   0.000336997   0.000000000
   0.499774135   0.000068972   0.500000000
   0.499334365   0.499334365   0.500000000
   0.000565235   0.249180381   0.249012880
   0.000565235   0.249180381   0.750987120
   0.000122626   0.750818938   0.249473485
   0.000122626   0.750818938   0.750526515
   0.499770317   0.249985103   0.248977063
   0.499770317   0.249985103   0.751022937
   0.499786528   0.749912241   0.249107655
   0.499786528   0.749912241   0.750892345
   0.249180381   0.000565235   0.249012880
   0.249180381   0.000565235   0.750987120
   0.249985103   0.499770317   0.248977063
   0.249985103   0.499770317   0.751022937
   0.750818938   0.000122626   0.249473485
   0.750818938   0.000122626   0.750526515
   0.749912241   0.499786528   0.249107655
   0.749912241   0.499786528   0.750892345
   0.248886730   0.248886730   0.500000000
   0.249658437   0.750542328   0.000000000
   0.249606055   0.750757804   0.500000000
   0.750542328   0.249658437   0.000000000
   0.750757804   0.249606055   0.500000000
   0.750464577   0.750464577   0.000000000
   0.749853952   0.749853952   0.500000000
   0.249773257   0.249773257   0.249553443
   0.249773257   0.249773257   0.750446557
   0.249613516   0.750747412   0.249156389
   0.249613516   0.750747412   0.750843611
   0.750747412   0.249613516   0.249156389
   0.750747412   0.249613516   0.750843611
   0.750403214   0.750403214   0.249012367
   0.750403214   0.750403214   0.750987633
   0.250552390   0.000863835   0.000000000
   0.249323716   0.000204039   0.500000000
   0.249069741   0.500153688   0.000000000
   0.249467927   0.499413517   0.500000000
   0.749566572   0.000530180   0.000000000
   0.750196049   0.000364036   0.500000000
   0.751366136   0.499434377   0.000000000
   0.749830203   0.499164722   0.500000000
   0.000863835   0.250552390   0.000000000
   0.000204039   0.249323716   0.500000000
   0.000530180   0.749566572   0.000000000
   0.000364036   0.750196049   0.500000000
   0.500153688   0.249069741   0.000000000
   0.499413517   0.249467927   0.500000000
   0.499434377   0.751366136   0.000000000
   0.499164722   0.749830203   0.500000000
   0.000288030   0.000288030   0.248070361
   0.000288030   0.000288030   0.751929639
   0.000486652   0.499567834   0.249682952
   0.000486652   0.499567834   0.750317048
   0.499567834   0.000486652   0.249682952
   0.499567834   0.000486652   0.750317048
   0.499468389   0.499468389   0.248212154
   0.499468389   0.499468389   0.751787846
Mg28Ni4O32
   1.00000000
   8.499147416  -0.000831594  -0.000000000
  -0.000831594   8.499147416  -0.000000000
  -0.000000000  -0.000000000   8.499080048
  Ni  Mg  O
  4  28  32
Direct configuration=     11
   0.000610391   0.000610391   0.000000000
   0.999491927   0.999491927   0.500000000
   0.499852063   0.499852063   0.000000000
   0.250567812   0.250567812   0.000000000