H107LiMg53
   1.00000000
   13.503017205  -0.000000078   0.000000001
  -0.000000078   13.503017267  -0.000000021
   0.000000001  -0.000000014   9.029981248
  Li  Mg  H
  1  53  107
Direct configuration=     1
   0.999998972   0.999998957   0.999999870
   0.000000016   0.000000396   0.332895910
   0.999999643   0.999999500   0.667103938
   0.999994449   0.333301362   0.999991771
   0.999992631   0.333318773   0.333334270
   0.999993720   0.333325538   0.666673985
   0.999839492   0.666855138   0.999576496
   0.999840781   0.666838335   0.333751226
   0.999994592   0.666685391   0.666674517
   0.333301457   0.999997660   0.999999423
   0.333318897   0.999995965   0.333326636
   0.333321470   0.999998960   0.666673982
   0.333328037   0.333330450   0.000009782
   0.333327877   0.333330271   0.333319060
   0.333327520   0.333330605   0.666671178
   0.333329424   0.666679466   0.999991925
   0.333334883   0.666673921   0.333343465
   0.333327972   0.666672800   0.666664594
   0.666695084   0.000000575   0.000000310
   0.666677394   0.000002535   0.333325695
   0.666678512   0.000001356   0.666674014
   0.666675933   0.333329056   0.999999256
   0.666670595   0.333334413   0.333336009
   0.666667689   0.333331981   0.666664734
   0.666670513   0.666670965   0.000000281
   0.666670567   0.666670937   0.333328566
   0.666671417   0.666671168   0.666671213
   0.166533202   0.166534377   0.166479110
   0.166656777   0.166655427   0.500001931
   0.166534357   0.166533043   0.833518982
   0.166846241   0.499815894   0.166664111
   0.166671742   0.499992415   0.500035603
   0.166669603   0.499992584   0.833300288
   0.166540321   0.833497827   0.166622155
   0.166660227   0.833339377   0.500007663
   0.166532286   0.833469625   0.833369182
   0.500000478   0.166661699   0.166664043
   0.499999938   0.166664220   0.499999813
   0.500000082   0.166662096   0.833336142
   0.499999632   0.500001074   0.166667704
   0.500001210   0.499999871   0.500001885
   0.500001215   0.499999876   0.833330411
   0.500000744   0.833339036   0.166664017
   0.499999197   0.833336037   0.499999502
   0.499999073   0.833338169   0.833336479
   0.833473236   0.166524771   0.166620765
   0.833344585   0.166656048   0.499999488
   0.833474301   0.166526300   0.833379813
   0.833314935   0.499987449   0.166664151
   0.833341515   0.499995267   0.500007235
   0.833343526   0.499995017   0.833328577
   0.833440541   0.833491307   0.166478501
   0.833352747   0.833333860   0.499996436
   0.833474904   0.833456677   0.833525118
   0.101608929   0.101608481   0.999999681
   0.101465666   0.101465519   0.333406019
   0.101465842   0.101465873   0.666594499
   0.101418543   0.434830318   0.000071227
   0.101416535   0.434829136   0.333261067
   0.101439766   0.434769828   0.666667641
   0.101441345   0.768009161   0.000079329
   0.101425058   0.768019928   0.333277277
   0.101445475   0.768091399   0.666644170
   0.434772621   0.101440076   0.000000054
   0.434771350   0.101438219   0.333332287
   0.434771595   0.101438473   0.666667659
   0.434775237   0.434772809   0.999997824
   0.434774930   0.434772499   0.333335064
   0.434773155   0.434771747   0.666667111
   0.434773009   0.768105245   0.000000489
   0.434773322   0.768105959   0.333332061
   0.434772710   0.768105296   0.666667439
   0.768073648   0.101457650   0.000000280
   0.768083834   0.101438275   0.333355826
   0.768083980   0.101438223   0.666643894
   0.768110204   0.434776357   0.000006427
   0.768110944   0.434776687   0.333326134
   0.768103557   0.434772051   0.666667440
   0.768043508   0.768036139   0.000005602
   0.768113433   0.768106048   0.333320332
   0.768102478   0.768110967   0.666674068
   0.231960260   0.231957799   0.999997772
   0.231890616   0.231888184   0.333328061
   0.231891337   0.231889927   0.666674146
   0.231837748   0.565250054   0.000071290
   0.231837089   0.565249689   0.333261378
   0.231896283   0.565226456   0.666667433
   0.231921829   0.898537058   0.000006727
   0.231911977   0.898556971   0.333349669
   0.231916589   0.898564265   0.666643936
   0.565228287   0.231895428   0.000000055
   0.565228006   0.231894742   0.333332508
   0.565227764   0.231894502   0.666667437
   0.565227702   0.565227463   0.999999551
   0.565228008   0.565227767   0.333333336
   0.565227651   0.565227622   0.666667113
   0.565226490   0.898559458   0.000000295
   0.565227778   0.898561329   0.333332046
   0.565227846   0.898561184   0.666667660
   0.898542592   0.231925391   0.000000419
   0.898561872   0.231915247   0.333355583
   0.898562550   0.231915863   0.666643950
   0.898622691   0.565238557   0.000078694
   0.898625373   0.565241065   0.333254183
   0.898553646   0.565220657   0.666667583
   0.898394461   0.898388601   0.000003822
   0.898537078   0.898530258   0.333400049
   0.898532426   0.898541002   0.666594250
   0.065215971   0.268138587   0.166692355
   0.065227923   0.268098080   0.500000209
   0.065218486   0.268136369   0.833307591
   0.065232466   0.601435566   0.499989186
   0.065233119   0.601435784   0.833341822
   0.065355684   0.934639094   0.166967534
   0.065214002   0.934786497   0.499998835
   0.065357529   0.934643770   0.833034003
   0.398560260   0.268102292   0.166665999
   0.398561257   0.268105750   0.499999466
   0.398558587   0.268103974   0.833334531
   0.398558943   0.601440750   0.166666542
   0.398561631   0.601437811   0.500000201
   0.398561104   0.601438339   0.833333259
   0.398560701   0.934772293   0.166668146
   0.398561197   0.934771977   0.500000347
   0.398560641   0.934772044   0.833331513
   0.731897987   0.268100540   0.166665870
   0.731894028   0.268104866   0.500000347
   0.731898266   0.268100630   0.833333786
   0.731899314   0.601443992   0.166666022
   0.731893146   0.601439297   0.499998926
   0.731894904   0.601441974   0.833335048
   0.731862573   0.934783020   0.166692306
   0.731902085   0.934772471   0.500000770
   0.731863528   0.934781972   0.833306877
   0.268137030   0.065218465   0.166692157
   0.268098609   0.065227543   0.500000205
   0.268136901   0.065218105   0.833307618
   0.268100938   0.398561661   0.166666005
   0.268105525   0.398561488   0.500000474
   0.268103746   0.398558836   0.833333530
   0.268075256   0.731884533   0.166665660
   0.268108463   0.731892462   0.500002455
   0.268103957   0.731896986   0.833331829
   0.601440332   0.065228066   0.166668153
   0.601439448   0.065228488   0.499999912
   0.601439977   0.065228421   0.833331933
   0.601438349   0.398560524   0.166666579
   0.601438204   0.398561122   0.500000161
   0.601438717   0.398560611   0.833333260
   0.601440081   0.731896263   0.166666001
   0.601438252   0.731894544   0.499999404
   0.601440934   0.731896325   0.833334594
   0.934641241   0.065359959   0.166967069
   0.934785017   0.065215145   0.499999503
   0.934641130   0.065359176   0.833033081
   0.934785738   0.398586041   0.166668353
   0.934773553   0.398557583   0.500002367
   0.934773599   0.398556994   0.833329375
   0.934984674   0.731662935   0.166691768
   0.934764502   0.731909884   0.499993192
   0.934774721   0.731872383   0.833315808
H107LiMg53
   1.00000000
   13.503224821  -0.000002794   0.000000040
  -0.000002794   13.503225551  -0.000000255
   0.000000027  -0.000000170   9.029761953
  Li  Mg  H
  1  53  107
Direct configuration=     2
   0.999987804   0.999988131   0.999998388
   0.000001367   0.000007145   0.328255383
   0.999996344   0.999998859   0.671743119
   0.999940017   0.332977788   0.999909622
   0.999913750   0.333177520   0.333356651
   0.999922481   0.333244654   0.666734250
   0.998010818   0.668969517   0.994877210
   0.998032636   0.668775416   0.338406278
   0.999951208   0.666867595   0.666740703
   0.332968187   0.999975182   0.999993759
   0.333168496   0.999950815   0.333272519
   0.333200090   0.999987915   0.666734219
   0.333292482   0.333307289   0.000103166
   0.333267526   0.333282155   0.333181968
   0.333258569   0.333290813   0.666715140
   0.333266751   0.666825762   0.999911300
   0.333337617   0.666753665   0.333439542
   0.333268798   0.666744632   0.666649003
   0.666988229   0.000005801   0.000000303
   0.666785397   0.000033661   0.333265236
   0.666801083   0.000017196   0.666734506
   0.666786449   0.333272903   0.999991737
   0.666716890   0.333342612   0.333357721
   0.666680928   0.333312756   0.666650533
   0.666694549   0.666701242   0.000002745
   0.666718365   0.666723911   0.333282373
   0.666726167   0.666727392   0.666715484
   0.165071811   0.165086923   0.164500819
   0.166566144   0.166549158   0.500024498
   0.165086998   0.165070564   0.835474981
   0.168875918   0.497732819   0.166632136
   0.166722941   0.499908074   0.500404876
   0.166697382   0.499912023   0.832963206
   0.165217073   0.835243759   0.166179146
   0.166566103   0.833418258   0.500064110
   0.165115766   0.834897418   0.833745512
   0.500008396   0.166600940   0.166631166
   0.499998246   0.166632819   0.499998027
   0.500002093   0.166607257   0.833370824
   0.499996401   0.500014479   0.166674852
   0.500015657   0.499998790   0.500023892
   0.500015719   0.499998852   0.833301269
   0.500007174   0.833407933   0.166630835
   0.499991666   0.833370653   0.499995042
   0.499988091   0.833396275   0.833374102
   0.834946224   0.165029057   0.166161781
   0.833488068   0.166518886   0.499994816
   0.834960131   0.165046487   0.833844195
   0.833115612   0.499844514   0.166632990
   0.833443714   0.499947450   0.500059151
   0.833467637   0.499941985   0.833307548
   0.834666539   0.835166730   0.164494753
   0.833531486   0.833337736   0.499951046
   0.835006284   0.834820661   0.835554980
   0.103485764   0.103479837   0.999996018
   0.101812794   0.101810752   0.334191102
   0.101814662   0.101814698   0.665815363
   0.101234157   0.435539512   0.000874933
   0.101213236   0.435529838   0.332449984
   0.101511954   0.434796405   0.666673988
   0.101552817   0.766999214   0.000959750
   0.101364078   0.767116187   0.332665447
   0.101589975   0.767987668   0.666382828
   0.434828272   0.101512110   0.000000378
   0.434817372   0.101492920   0.333325383
   0.434821204   0.101497228   0.666674224
   0.434862674   0.434834797   0.999975445
   0.434858856   0.434830937   0.333355733
   0.434839183   0.434821968   0.666668822
   0.434842513   0.768163957   0.000006419
   0.434845599   0.768172996   0.333321857
   0.434837755   0.768163995   0.666671594
   0.767787376   0.101732814   0.000003711
   0.767896885   0.101506411   0.333616805
   0.767898424   0.101506692   0.666379428
   0.768228678   0.434887506   0.000075186
   0.768238108   0.434890885   0.333253215
   0.768141524   0.434828246   0.666671564
   0.767428580   0.767321556   0.000080098
   0.768297003   0.768189239   0.333110709
   0.768156475   0.768254427   0.666808606
   0.232630656   0.232602364   0.999974824
   0.231765753   0.231737818   0.333215453
   0.231774317   0.231757120   0.666809505
   0.231134091   0.565455652   0.000876068
   0.231125747   0.565451816   0.332453529
   0.231857946   0.565152891   0.666671486
   0.232153241   0.898197051   0.000078383
   0.232047985   0.898430243   0.333545636
   0.232110148   0.898525924   0.666379314
   0.565174614   0.231845371   0.000000390
   0.565171947   0.231836702   0.333328069
   0.565167819   0.231832965   0.666671534
   0.565171183   0.565167934   0.999994408
   0.565174943   0.565171691   0.333336764
   0.565170963   0.565170211   0.666668828
   0.565160891   0.898481164   0.000003891
   0.565171984   0.898500492   0.333321839
   0.565171847   0.898498918   0.666674243
   0.898268916   0.232200620   0.000005614
   0.898494174   0.232091621   0.333613748
   0.898503327   0.232099503   0.666380084
   0.899255626   0.565290567   0.000951813
   0.899283951   0.565316048   0.332380217
   0.898408501   0.565089784   0.666673426
   0.896562615   0.896468878   0.000062035
   0.898225517   0.898124667   0.334104578
   0.898163611   0.898262790   0.665812242
   0.065031926   0.268563167   0.166970654
   0.065169244   0.268082215   0.500001236
   0.065062589   0.268537608   0.833029799
   0.065220717   0.601467596   0.499913064
   0.065231074   0.601468783   0.833400447
   0.066640419   0.933295107   0.170285743
   0.064974580   0.935028340   0.499982513
   0.066668434   0.933343883   0.829737409
   0.398485198   0.268134851   0.166658245
   0.398499874   0.268170938   0.499991829
   0.398471051   0.268149101   0.833349870
   0.398471178   0.601523287   0.166660688
   0.398499305   0.601490490   0.500001118
   0.398496002   0.601493795   0.833338275
   0.398491675   0.934830157   0.166677993
   0.398496149   0.934829558   0.500003476
   0.398491041   0.934827436   0.833318622
   0.731919588   0.268063430   0.166655304
   0.731829073   0.268157991   0.500003493
   0.731922731   0.268064345   0.833341247
   0.731890444   0.601562274   0.166658601
   0.731822693   0.601502823   0.499983518
   0.731844381   0.601531714   0.833357925
   0.731445980   0.934963026   0.166970194
   0.731926287   0.934832514   0.500007423
   0.731467721   0.934940036   0.833021970
   0.268541527   0.065061415   0.166968399
   0.268085462   0.065163511   0.500001943
   0.268540905   0.065056723   0.833029467
   0.268175093   0.398445350   0.166658352
   0.268165119   0.398505746   0.499999487
   0.268143258   0.398477147   0.833342248
   0.267751804   0.731749934   0.166652678
   0.268200349   0.731810454   0.500029809
   0.268103511   0.731907599   0.833316618
   0.601520830   0.065173261   0.166678057
   0.601510594   0.065176678   0.499999119
   0.601515379   0.065178721   0.833322830
   0.601494646   0.398493153   0.166661148
   0.601496420   0.398496205   0.500001427
   0.601499371   0.398493252   0.833337407
   0.601511983   0.731855084   0.166658315
   0.601492718   0.731834015   0.499991612
   0.601521655   0.731855933   0.833350105
   0.933319380   0.066694325   0.170280190
   0.935015817   0.064986148   0.499992982
   0.933318066   0.066685907   0.829722859
   0.934999451   0.398804111   0.166680612
   0.934848317   0.398453693   0.500028687
   0.934845948   0.398448238   0.833291877
   0.937404033   0.729030962   0.166960991
   0.934699671   0.732056874   0.500027460
   0.934815841   0.731611657   0.833017732
H107LiMg53
   1.00000000
   13.503246682  -0.000005429   0.000000072
  -0.000005429   13.503247319  -0.000000240
   0.000000048  -0.000000161   9.029748397
  Li  Mg  H
  1  53  107
Direct configuration=     3
   0.999987702   0.999988171   0.999998277
   0.000002239   0.000009303   0.328358174
   0.999996749   0.000002919   0.671640884
   0.999944842   0.332997009   0.999916594
   0.999914456   0.333190812   0.333364330
   0.999919712   0.333245171   0.666719774
   0.997944543   0.669021890   0.994810501
   0.997970837   0.668833878   0.338489536
   0.999967202   0.666849231   0.666726326
   0.332976681   0.999977448   0.999994320
   0.333171218   0.999949244   0.333286470
   0.333203976   0.999987960   0.666719720
   0.333311334   0.333310893   0.000089772
   0.333263799   0.333263210   0.333196242
   0.333249164   0.333277506   0.666714245
   0.333242968   0.666837057   0.999918226
   0.333319928   0.666758722   0.333422482
   0.333263947   0.666753267   0.666659221
   0.666977088   0.000005186   0.999997602
   0.666780440   0.000037164   0.333282409
   0.666798361   0.000018383   0.666719856
   0.666800112   0.333259719   0.999992267
   0.666724386   0.333335539   0.333347110
   0.666686999   0.333304682   0.666660613
   0.666680998   0.666689082   0.000002330
   0.666727452   0.666734202   0.333283580
   0.666733356   0.666738259   0.666714540
   0.165071117   0.165087299   0.164579285
   0.166585533   0.166567807   0.500025858
   0.165087648   0.165070533   0.835395250
   0.168941974   0.497666390   0.166631600
   0.166721501   0.499907163   0.500387549
   0.166695869   0.499912930   0.832981357
   0.165276352   0.835190024   0.166216981
   0.166546684   0.833427206   0.500039181
   0.165169300   0.834834518   0.833732794
   0.500010596   0.166598133   0.166630429
   0.499997270   0.166631426   0.499998200
   0.500003134   0.166605611   0.833371388
   0.499997133   0.500016175   0.166674720
   0.500016799   0.499999156   0.500025207
   0.500016852   0.499999232   0.833300098
   0.500005725   0.833411117   0.166630083
   0.499992747   0.833372421   0.499995816
   0.499987174   0.833398266   0.833374082
   0.834888590   0.165085593   0.166198990
   0.833504886   0.166501583   0.499995540
   0.834903711   0.165102478   0.833806223
   0.833114296   0.499839415   0.166632684
   0.833453406   0.499950817   0.500034458
   0.833477357   0.499943025   0.833332696
   0.834702884   0.835127910   0.164575853
   0.833496150   0.833333934   0.499946484
   0.834989039   0.834834679   0.835480393
   0.103453554   0.103447092   0.999995747
   0.101805149   0.101802825   0.334184387
   0.101806739   0.101806455   0.665822421
   0.101208778   0.435560047   0.000902480
   0.101190326   0.435554140   0.332422750
   0.101510833   0.434792386   0.666673255
   0.101572425   0.766976825   0.000976424
   0.101388603   0.767083004   0.332662616
   0.101598805   0.767976944   0.666368610
   0.434823615   0.101507799   0.000000154
   0.434816327   0.101491101   0.333326295
   0.434820970   0.101496634   0.666673539
   0.434861171   0.434834282   0.999976440
   0.434856492   0.434829539   0.333354297
   0.434838055   0.434820350   0.666669259
   0.434845884   0.768165289   0.000007047
   0.434848472   0.768174863   0.333321614
   0.434840410   0.768165030   0.666671197
   0.767787274   0.101739388   0.000003942
   0.767884906   0.101516683   0.333630784
   0.767886229   0.101517766   0.666365150
   0.768235143   0.434895447   0.000074175
   0.768245258   0.434898478   0.333254600
   0.768141129   0.434829529   0.666671109
   0.767428501   0.767303762   0.000091030
   0.768329332   0.768202676   0.333047816
   0.768178759   0.768274542   0.666858758
   0.232642788   0.232615576   0.999975866
   0.231746563   0.231719638   0.333164112
   0.231755305   0.231737663   0.666859835
   0.231108372   0.565475101   0.000904134
   0.231099508   0.565471563   0.332425780
   0.231860140   0.565150703   0.666671058
   0.232148774   0.898184180   0.000077076
   0.232055547   0.898413903   0.333561003
   0.232123616   0.898517309   0.666364499
   0.565172650   0.231845103   0.000000163
   0.565170468   0.231835884   0.333328712
   0.565165134   0.231831364   0.666671120
   0.565171791   0.565168113   0.999994134
   0.565176365   0.565172689   0.333336601
   0.565172613   0.565171477   0.666669265
   0.565165360   0.898484416   0.000004149
   0.565172845   0.898501260   0.333322243
   0.565171857   0.898499848   0.666673564
   0.898261386   0.232200359   0.000006320
   0.898482939   0.232103230   0.333627401
   0.898492979   0.232111387   0.666365789
   0.899282296   0.565282447   0.000966833
   0.899307258   0.565303647   0.332365896
   0.898408093   0.565092520   0.666672870
   0.896603803   0.896486725   0.000076718
   0.898239309   0.898119975   0.334085021
   0.898170547   0.898267825   0.665818875
   0.065033157   0.268567815   0.166973140
   0.065166334   0.268087065   0.499999932
   0.065064510   0.268542949   0.833028495
   0.065214137   0.601472097   0.499951377
   0.065226767   0.601472338   0.833366130
   0.066592026   0.933340359   0.170349980
   0.064948137   0.935051652   0.499979182
   0.066626858   0.933382709   0.829678026
   0.398484859   0.268141127   0.166661657
   0.398500476   0.268173104   0.499990336
   0.398475179   0.268150925   0.833347931
   0.398469940   0.601522524   0.166659564
   0.398495437   0.601490931   0.499999776
   0.398494012   0.601492341   0.833340794
   0.398491350   0.934830332   0.166675702
   0.398494847   0.934832597   0.500002815
   0.398490901   0.934827807   0.833321590
   0.731954505   0.268029148   0.166656949
   0.731829411   0.268157824   0.500002853
   0.731957485   0.268029782   0.833340249
   0.731889060   0.601560775   0.166662136
   0.731826673   0.601498888   0.499980092
   0.731848749   0.601524253   0.833357930
   0.731439091   0.934966124   0.166972873
   0.731927140   0.934833185   0.500005739
   0.731468114   0.934936104   0.833021288
   0.268543006   0.065062306   0.166970929
   0.268087425   0.065159385   0.500001403
   0.268543326   0.065057359   0.833027493
   0.268248194   0.398377749   0.166661719
   0.268164414   0.398509195   0.499993362
   0.268142231   0.398484104   0.833344968
   0.267706838   0.731776017   0.166654238
   0.268199827   0.731810771   0.500030413
   0.268068501   0.731942481   0.833314237
   0.601521040   0.065172523   0.166675753
   0.601511131   0.065174198   0.499999330
   0.601514726   0.065178857   0.833324942
   0.601494055   0.398495082   0.166660037
   0.601498082   0.398495157   0.500000918
   0.601499024   0.398494209   0.833339029
   0.601506803   0.731854436   0.166661785
   0.601490869   0.731833071   0.499990281
   0.601516280   0.731855352   0.833348014
   0.933363849   0.066649598   0.170344379
   0.935043931   0.064958029   0.499991808
   0.933362690   0.066641568   0.829659921
   0.935008674   0.398814598   0.166678493
   0.934851437   0.398452793   0.500029244
   0.934846396   0.398448524   0.833293536
   0.937466577   0.728968904   0.166958205
   0.934651499   0.732106403   0.500161903
   0.934761362   0.731662031   0.832876584
H107LiMg53
   1.00000000
   13.503697686  -0.000055029   0.000000622
  -0.000055029   13.503696731   0.000000050
   0.000000416   0.000000034   9.029450972
  Li  Mg  H
  1  53  107
Direct configuration=     4
   0.999983616   0.999986783   0.999996428
   0.000017064   0.000049184   0.329302317
   0.000002790   0.000071830   0.670709019
   0.000015690   0.333275168   0.000025178
   0.999908369   0.333407486   0.333498278
   0.999856606   0.333241306   0.666480323
   0.996376278   0.670408380   0.992627497
   0.996485695   0.670283763   0.340946891
   0.000251363   0.666547564   0.666491168
   0.333055848   0.000009865   0.000002693
   0.333191757   0.999910128   0.333518376
   0.333251839   0.999985172   0.666479784
   0.333661196   0.333357693   0.999849512
   0.333198423   0.332895288   0.333437147
   0.333063497   0.333029209   0.666713362
   0.332792515   0.667080295   0.000026108
   0.332996242   0.666872338   0.333139402
   0.333161459   0.666925606   0.666835761
   0.666840136   0.999997805   0.999954499
   0.666708935   0.000107187   0.333565064
   0.666770380   0.000043312   0.666477356
   0.667077099   0.333005366   0.999999702
   0.666873762   0.333207984   0.333165433
   0.666803709   0.333153068   0.666834849
   0.666440760   0.666475528   0.999993689
   0.666902988   0.666932629   0.333291103
   0.666879435   0.666948236   0.666712934
   0.164757425   0.164796161   0.165534726
   0.166913489   0.166880569   0.500053552
   0.164800891   0.164769798   0.834414011
   0.170562404   0.496024703   0.166615439
   0.166700241   0.499878258   0.500148542
   0.166668204   0.499915872   0.833241545
   0.166031072   0.834619841   0.166806118
   0.166172343   0.833604306   0.499609195
   0.165800957   0.834030917   0.833574502
   0.500045053   0.166538691   0.166610547
   0.499979635   0.166598673   0.500000254
   0.500020746   0.166563113   0.833389184
   0.500009258   0.500049553   0.166679223
   0.500039239   0.500005760   0.500051883
   0.500039122   0.500006166   0.833269009
   0.499982604   0.833483868   0.166609866
   0.500009849   0.833412769   0.500007759
   0.499969391   0.833447838   0.833382297
   0.834194541   0.165755424   0.166774339
   0.833840482   0.166158859   0.500006628
   0.834233479   0.165766669   0.833219363
   0.833053982   0.499720215   0.166620548
   0.833653941   0.500003225   0.499608388
   0.833683155   0.499954156   0.833773293
   0.835623181   0.834758831   0.165578754
   0.832877434   0.833290141   0.499863223
   0.834972976   0.835389679   0.834598755
   0.103259559   0.103241894   0.999989482
   0.101740175   0.101732000   0.334252505
   0.101736644   0.101730571   0.665762280
   0.100713794   0.436083147   0.001566752
   0.100733451   0.436140536   0.331764274
   0.101507394   0.434724930   0.666660061
   0.101949943   0.766364659   0.001444378
   0.101823792   0.766291120   0.332508486
   0.101795135   0.767762034   0.666048363
   0.434753987   0.101446368   0.999996296
   0.434806899   0.101468719   0.333342580
   0.434826398   0.101497960   0.666661168
   0.434857592   0.434844086   0.999986684
   0.434827465   0.434813456   0.333336114
   0.434826449   0.434796376   0.666677198
   0.434913398   0.768197058   0.000020259
   0.434909057   0.768218718   0.333311896
   0.434899912   0.768194856   0.666667536
   0.767730679   0.101912579   0.000007401
   0.767627088   0.101719147   0.333947617
   0.767624445   0.101734457   0.666043709
   0.768372856   0.435055152   0.000072600
   0.768397537   0.435053710   0.333259677
   0.768145016   0.434865058   0.666666268
   0.767330894   0.766848684   0.000309978
   0.768952987   0.768445296   0.331864226
   0.768572701   0.768661342   0.667789537
   0.232974492   0.232962319   0.999986646
   0.231378959   0.231365668   0.332219803
   0.231394746   0.231365501   0.667793873
   0.230496782   0.565873392   0.001577996
   0.230476468   0.565873082   0.331754569
   0.231892931   0.565096053   0.666666879
   0.232113700   0.897884898   0.000071689
   0.232225653   0.898091365   0.333885563
   0.232405990   0.898346638   0.666032679
   0.565130444   0.231831390   0.999996246
   0.565134971   0.231809858   0.333336659
   0.565106340   0.231791051   0.666667108
   0.565166720   0.565154281   0.999987537
   0.565195866   0.565183517   0.333335334
   0.565195312   0.565187181   0.666677227
   0.565230333   0.898525781   0.000008102
   0.565177879   0.898503832   0.333330323
   0.565161755   0.898505382   0.666661270
   0.898073359   0.232251386   0.000020815
   0.898265362   0.232355443   0.333935551
   0.898290278   0.232365465   0.666044104
   0.899894719   0.565139392   0.001404241
   0.899867299   0.565092319   0.331942895
   0.898368440   0.565111332   0.666662630
   0.896979340   0.896400404   0.000361575
   0.898433058   0.897942632   0.333897636
   0.898218080   0.898312984   0.665751627
   0.065019596   0.268738782   0.167077744
   0.065107674   0.268170374   0.499972127
   0.065067897   0.268722168   0.832950046
   0.065079155   0.601570298   0.500625862
   0.065132873   0.601558739   0.832758766
   0.066034145   0.933826982   0.172184685
   0.064438057   0.935503576   0.499912292
   0.066195070   0.933765165   0.827936370
   0.398483284   0.268245802   0.166724302
   0.398494492   0.268220905   0.499965926
   0.398536733   0.268192696   0.833309269
   0.398414456   0.601536867   0.166633839
   0.398408626   0.601510668   0.499971199
   0.398428960   0.601490042   0.833396156
   0.398470605   0.934844592   0.166638381
   0.398463925   0.934896780   0.499990612
   0.398474966   0.934845139   0.833371372
   0.732566972   0.267426597   0.166686162
   0.731829409   0.268158506   0.499991041
   0.732567465   0.267420810   0.833322963
   0.731863318   0.601554422   0.166727066
   0.731888393   0.601447716   0.499911435
   0.731917240   0.601405463   0.833363585
   0.731248006   0.935043315   0.167079873
   0.731944333   0.934859031   0.499974612
   0.731390086   0.934903666   0.832950100
   0.268649349   0.065044628   0.167075943
   0.268116334   0.065076951   0.499991079
   0.268667496   0.065035704   0.832933050
   0.269589025   0.397132305   0.166723698
   0.268159486   0.398555544   0.499876299
   0.268131794   0.398597598   0.833399536
   0.266851196   0.732196988   0.166681343
   0.268202162   0.731806131   0.500045298
   0.267458517   0.732551581   0.833268379
   0.601537385   0.065151687   0.166638194
   0.601530656   0.065120164   0.500003776
   0.601518609   0.065170656   0.833358260
   0.601509804   0.398504076   0.166634644
   0.601541731   0.398461624   0.499991078
   0.601518585   0.398484685   0.833374266
   0.601424501   0.731833446   0.166725520
   0.601475731   0.731806276   0.499963263
   0.601433671   0.731834849   0.833312036
   0.933843129   0.066168146   0.172178041
   0.935582106   0.064419455   0.499968237
   0.933845614   0.066163985   0.827850864
   0.935218172   0.399049287   0.166644830
   0.934921300   0.398421024   0.500043172
   0.934869376   0.398432139   0.833315322
   0.939064487   0.727341051   0.166965123
   0.933765486   0.733032358   0.502642999
   0.933788495   0.732516863   0.830220239
H107LiMg53
   1.00000000
   13.503769656  -0.000062860   0.000000631
  -0.000062860   13.503768531   0.000000177
   0.000000422   0.000000119   9.029404158
  Li  Mg  H
  1  53  107
Direct configuration=     5
   0.999982931   0.999986315   0.999996773
   0.000017239   0.000052936   0.329337103
   0.000003054   0.000073681   0.670678795
   0.000015934   0.333294744   0.000034478
   0.999902660   0.333434801   0.333502499
   0.999849805   0.333242971   0.666466943
   0.996167539   0.670617750   0.992258169
   0.996283892   0.670483492   0.341326120
   0.000286329   0.666510337   0.666480873
   0.333049104   0.000008060   0.000002774
   0.333192909   0.999902868   0.333531854
   0.333256967   0.999982791   0.666466283
   0.333718823   0.333344492   0.999803709
   0.333207794   0.332833856   0.333474714
   0.333039099   0.333001574   0.666721655
   0.332731420   0.667121489   0.000035341
   0.332954505   0.666893836   0.333117136
   0.333145308   0.666948170   0.666848800
   0.666837608   0.000000542   0.999957242
   0.666699018   0.000116070   0.333575974
   0.666765354   0.000047027   0.666463651
   0.667119235   0.332970441   0.999999645
   0.666896708   0.333192277   0.333152807
   0.666822316   0.333133873   0.666847514
   0.666415400   0.666453463   0.999991047
   0.666925377   0.666957591   0.333284861
   0.666902812   0.666974986   0.666721329
   0.164686508   0.164728513   0.165530320
   0.166942989   0.166909778   0.500055286