Mg28Ni4O32
   1.00000000
   8.440311127   0.000000000   0.000000000
   0.000000000   8.440347636  -0.000000048
   0.000000000  -0.000000048   8.440347636
  Ni  Mg  O
  4  28  32
Direct configuration=     1
   0.000000000   0.000000000   0.000000000
   0.000000000   0.500000000   0.500000000
   0.500000000   0.250000000   0.250000000
   0.500000000   0.750000000   0.750000000
   0.000000000   0.000000000   0.500000000
   0.000000000   0.500000000   0.000000000
   0.500000000   0.000000000   0.000000000
   0.500000000   0.000000000   0.500000000
   0.500000000   0.500000000   0.000000000
   0.500000000   0.500000000   0.500000000
   0.000000000   0.250000000   0.250000000
   0.000000000   0.250000000   0.750000000
   0.000000000   0.750000000   0.250000000
   0.000000000   0.750000000   0.750000000
   0.500000000   0.250000000   0.750000000
   0.500000000   0.750000000   0.250000000
   0.250000000   0.000101362   0.249898638
   0.250000000   0.999898638   0.750101362
   0.250000000   0.499898638   0.250101362
   0.250000000   0.500101362   0.749898638
   0.750000000   0.000101362   0.249898638
   0.750000000   0.999898638   0.750101362
   0.750000000   0.499898638   0.250101362
   0.750000000   0.500101362   0.749898638
   0.250000000   0.249898638   0.000101362
   0.250000000   0.250101362   0.499898638
   0.250000000   0.750101362   0.999898638
   0.250000000   0.749898638   0.500101362
   0.750000000   0.249898638   0.000101362
   0.750000000   0.250101362   0.499898638
   0.750000000   0.750101362   0.999898638
   0.750000000   0.749898638   0.500101362
   0.249820932   0.250000000   0.250000000
   0.250089895   0.250000000   0.750000000
   0.250089895   0.750000000   0.250000000
   0.249820932   0.750000000   0.750000000
   0.750179068   0.250000000   0.250000000
   0.749910105   0.250000000   0.750000000
   0.749910105   0.750000000   0.250000000
   0.750179068   0.750000000   0.750000000
   0.250179068   0.000000000   0.000000000
   0.249910105   0.000000000   0.500000000
   0.249910105   0.500000000   0.000000000
   0.250179068   0.500000000   0.500000000
   0.749820932   0.000000000   0.000000000
   0.750089895   0.000000000   0.500000000
   0.750089895   0.500000000   0.000000000
   0.749820932   0.500000000   0.500000000
   0.000000000   0.250292926   0.000048864
   0.000000000   0.249707074   0.499951136
   0.000000000   0.749707074   0.999951136
   0.000000000   0.750292926   0.500048864
   0.500000000   0.249951136   0.999707074
   0.500000000   0.250048864   0.500292926
   0.500000000   0.750048864   0.000292926
   0.500000000   0.749951136   0.499707074
   0.000000000   0.000048864   0.250292926
   0.000000000   0.999951136   0.749707074
   0.000000000   0.499951136   0.249707074
   0.000000000   0.500048864   0.750292926
   0.500000000   0.999707074   0.249951136
   0.500000000   0.000292926   0.750048864
   0.500000000   0.500292926   0.250048864
   0.500000000   0.499707074   0.749951136
Mg28Ni4O32
   1.00000000
   8.441801073   0.000000000   0.000000000
   0.000000000   8.442013674  -0.000000083
   0.000000000  -0.000000083   8.442013674
  Ni  Mg  O
  4  28  32
Direct configuration=     2
   0.000000000   0.000000000   0.000000000
   0.000000000   0.500000000   0.500000000
   0.500000000   0.250000000   0.250000000
   0.500000000   0.750000000   0.750000000
   0.000000000   0.000000000   0.500000000
   0.000000000   0.500000000   0.000000000
   0.500000000   0.000000000   0.000000000
   0.500000000   0.000000000   0.500000000
   0.500000000   0.500000000   0.000000000
   0.500000000   0.500000000   0.500000000
   0.000000000   0.250000000   0.250000000
   0.000000000   0.250000000   0.750000000
   0.000000000   0.750000000   0.250000000
   0.000000000   0.750000000   0.750000000
   0.500000000   0.250000000   0.750000000
   0.500000000   0.750000000   0.250000000
   0.250000000   0.000463787   0.249536213
   0.250000000   0.999536213   0.750463787
   0.250000000   0.499536213   0.250463787
   0.250000000   0.500463787   0.749536213
   0.750000000   0.000463787   0.249536213
   0.750000000   0.999536213   0.750463787
   0.750000000   0.499536213   0.250463787
   0.750000000   0.500463787   0.749536213
   0.250000000   0.249536213   0.000463787
   0.250000000   0.250463787   0.499536213
   0.250000000   0.750463787   0.999536213
   0.250000000   0.749536213   0.500463787
   0.750000000   0.249536213   0.000463787
   0.750000000   0.250463787   0.499536213
   0.750000000   0.750463787   0.999536213
   0.750000000   0.749536213   0.500463787
   0.249138124   0.250000000   0.250000000
   0.250379928   0.250000000   0.750000000
   0.250379928   0.750000000   0.250000000
   0.249138124   0.750000000   0.750000000
   0.750861876   0.250000000   0.250000000
   0.749620072   0.250000000   0.750000000
   0.749620072   0.750000000   0.250000000
   0.750861876   0.750000000   0.750000000
   0.250861876   0.000000000   0.000000000
   0.249620072   0.000000000   0.500000000
   0.249620072   0.500000000   0.000000000
   0.250861876   0.500000000   0.500000000
   0.749138124   0.000000000   0.000000000
   0.750379928   0.000000000   0.500000000
   0.750379928   0.500000000   0.000000000
   0.749138124   0.500000000   0.500000000
   0.000000000   0.251390901   0.000245234
   0.000000000   0.248609099   0.499754766
   0.000000000   0.748609099   0.999754766
   0.000000000   0.751390901   0.500245234
   0.500000000   0.249754766   0.998609099
   0.500000000   0.250245234   0.501390901
   0.500000000   0.750245234   0.001390901
   0.500000000   0.749754766   0.498609099
   0.000000000   0.000245234   0.251390901
   0.000000000   0.999754766   0.748609099
   0.000000000   0.499754766   0.248609099
   0.000000000   0.500245234   0.751390901
   0.500000000   0.998609099   0.249754766
   0.500000000   0.001390901   0.750245234
   0.500000000   0.501390901   0.250245234
   0.500000000   0.498609099   0.749754766
Mg28Ni4O32
   1.00000000
   8.442214767   0.000000000   0.000000000
   0.000000000   8.442478134   0.000000102
   0.000000000   0.000000102   8.442478134
  Ni  Mg  O
  4  28  32
Direct configuration=     3
   0.000000000   0.000000000   0.000000000
   0.000000000   0.500000000   0.500000000
   0.500000000   0.250000000   0.250000000
   0.500000000   0.750000000   0.750000000
   0.000000000   0.000000000   0.500000000
   0.000000000   0.500000000   0.000000000
   0.500000000   0.000000000   0.000000000
   0.500000000   0.000000000   0.500000000
   0.500000000   0.500000000   0.000000000
   0.500000000   0.500000000   0.500000000
   0.000000000   0.250000000   0.250000000
   0.000000000   0.250000000   0.750000000
   0.000000000   0.750000000   0.250000000
   0.000000000   0.750000000   0.750000000
   0.500000000   0.250000000   0.750000000
   0.500000000   0.750000000   0.250000000
   0.250000000   0.000468445   0.249531555
   0.250000000   0.999531555   0.750468445
   0.250000000   0.499531555   0.250468445
   0.250000000   0.500468445   0.749531555
   0.750000000   0.000468445   0.249531555
   0.750000000   0.999531555   0.750468445
   0.750000000   0.499531555   0.250468445
   0.750000000   0.500468445   0.749531555
   0.250000000   0.249531555   0.000468445
   0.250000000   0.250468445   0.499531555
   0.250000000   0.750468445   0.999531555
   0.250000000   0.749531555   0.500468445
   0.750000000   0.249531555   0.000468445
   0.750000000   0.250468445   0.499531555
   0.750000000   0.750468445   0.999531555
   0.750000000   0.749531555   0.500468445
   0.249093367   0.250000000   0.250000000
   0.250351423   0.250000000   0.750000000
   0.250351423   0.750000000   0.250000000
   0.249093367   0.750000000   0.750000000
   0.750906633   0.250000000   0.250000000
   0.749648577   0.250000000   0.750000000
   0.749648577   0.750000000   0.250000000
   0.750906633   0.750000000   0.750000000
   0.250906633   0.000000000   0.000000000
   0.249648577   0.000000000   0.500000000
   0.249648577   0.500000000   0.000000000
   0.250906633   0.500000000   0.500000000
   0.749093367   0.000000000   0.000000000
   0.750351423   0.000000000   0.500000000
   0.750351423   0.500000000   0.000000000
   0.749093367   0.500000000   0.500000000
   0.000000000   0.251449076   0.000266417
   0.000000000   0.248550924   0.499733583
   0.000000000   0.748550924   0.999733583
   0.000000000   0.751449076   0.500266417
   0.500000000   0.249733583   0.998550924
   0.500000000   0.250266417   0.501449076
   0.500000000   0.750266417   0.001449076
   0.500000000   0.749733583   0.498550924
   0.000000000   0.000266417   0.251449076
   0.000000000   0.999733583   0.748550924
   0.000000000   0.499733583   0.248550924
   0.000000000   0.500266417   0.751449076
   0.500000000   0.998550924   0.249733583
   0.500000000   0.001449076   0.750266417
   0.500000000   0.501449076   0.250266417
   0.500000000   0.498550924   0.749733583
Mg28Ni4O32
   1.00000000
   8.452887590  -0.000000000   0.000000000
  -0.000000000   8.454469092   0.000006001
   0.000000000   0.000006001   8.454469092
  Ni  Mg  O
  4  28  32
Direct configuration=     4
   1.000000000   0.000000000   1.000000000
   1.000000000   0.500000000   0.500000000
   0.500000000   0.250000000   0.250000000
   0.500000000   0.750000000   0.750000000
   1.000000000   0.000000000   0.500000000
   1.000000000   0.500000000   0.000000000
   0.500000000   0.000000000   1.000000000
   0.500000000   0.000000000   0.500000000
   0.500000000   0.500000000   0.000000000
   0.500000000   0.500000000   0.500000000
   0.000000000   0.250000000   0.250000000
   1.000000000   0.250000000   0.750000000
   1.000000000   0.750000000   0.250000000
   0.000000000   0.750000000   0.750000000
   0.500000000   0.250000000   0.750000000
   0.500000000   0.750000000   0.250000000
   0.250000000   0.000366219   0.249633781
   0.250000000   0.999633781   0.750366219
   0.250000000   0.499633781   0.250366219
   0.250000000   0.500366219   0.749633781
   0.750000000   0.000366219   0.249633781
   0.750000000   0.999633781   0.750366219
   0.750000000   0.499633781   0.250366219
   0.750000000   0.500366219   0.749633781
   0.250000000   0.249633781   0.000366219
   0.250000000   0.250366219   0.499633781
   0.250000000   0.750366219   0.999633781
   0.250000000   0.749633781   0.500366219
   0.750000000   0.249633781   0.000366219
   0.750000000   0.250366219   0.499633781
   0.750000000   0.750366219   0.999633781
   0.750000000   0.749633781   0.500366219
   0.248394397   0.250000000   0.250000000
   0.249389254   0.250000000   0.750000000
   0.249389254   0.750000000   0.250000000
   0.248394397   0.750000000   0.750000000
   0.751605603   0.250000000   0.250000000
   0.750610746   0.250000000   0.750000000
   0.750610746   0.750000000   0.250000000
   0.751605603   0.750000000   0.750000000
   0.251605603   0.000000000   1.000000000
   0.250610746   1.000000000   0.500000000
   0.250610746   0.500000000   1.000000000
   0.251605603   0.500000000   0.500000000
   0.748394397   0.000000000   1.000000000
   0.749389254   0.000000000   0.500000000
   0.749389254   0.500000000   1.000000000
   0.748394397   0.500000000   0.500000000
   1.000000000   0.252259965   0.000683263
   1.000000000   0.247740035   0.499316737
   1.000000000   0.747740035   0.999316737
   1.000000000   0.752259965   0.500683263
   0.500000000   0.249316737   0.997740035
   0.500000000   0.250683263   0.502259965
   0.500000000   0.750683263   0.002259965
   0.500000000   0.749316737   0.497740035
   1.000000000   0.000683263   0.252259965
   1.000000000   0.999316737   0.747740035
   1.000000000   0.499316737   0.247740035
   1.000000000   0.500683263   0.752259965
   0.500000000   0.997740035   0.249316737
   0.500000000   0.002259965   0.750683263
   0.500000000   0.502259965   0.250683263
   0.500000000   0.497740035   0.749316737
Mg28Ni4O32
   1.00000000
   8.461470789  -0.000000000   0.000000000
  -0.000000000   8.464121961   0.000012133
   0.000000000   0.000012133   8.464121961
  Ni  Mg  O
  4  28  32
Direct configuration=     5
   1.000000000   0.000000000   1.000000000
   1.000000000   0.500000000   0.500000000
   0.500000000   0.250000000   0.250000000
   0.500000000   0.750000000   0.750000000
   1.000000000   0.000000000   0.500000000
   1.000000000   0.500000000   0.000000000
   0.500000000   0.000000000   1.000000000
   0.500000000   0.000000000   0.500000000
   0.500000000   0.500000000   0.000000000
   0.500000000   0.500000000   0.500000000
   0.000000000   0.250000000   0.250000000
   1.000000000   0.250000000   0.750000000
   1.000000000   0.750000000   0.250000000
   0.000000000   0.750000000   0.750000000
   0.500000000   0.250000000   0.750000000
   0.500000000   0.750000000   0.250000000
   0.250000000   0.000180859   0.249819141
   0.250000000   0.999819141   0.750180859
   0.250000000   0.499819141   0.250180859
   0.250000000   0.500180859   0.749819141
   0.750000000   0.000180859   0.249819141
   0.750000000   0.999819141   0.750180859
   0.750000000   0.499819141   0.250180859
   0.750000000   0.500180859   0.749819141
   0.250000000   0.249819141   0.000180859
   0.250000000   0.250180859   0.499819141
   0.250000000   0.750180859   0.999819141
   0.250000000   0.749819141   0.500180859
   0.750000000   0.249819141   0.000180859
   0.750000000   0.250180859   0.499819141
   0.750000000   0.750180859   0.999819141
   0.750000000   0.749819141   0.500180859
   0.248210080   0.250000000   0.250000000
   0.248559901   0.250000000   0.750000000
   0.248559901   0.750000000   0.250000000
   0.248210080   0.750000000   0.750000000
   0.751789920   0.250000000   0.250000000
   0.751440099   0.250000000   0.750000000
   0.751440099   0.750000000   0.250000000
   0.751789920   0.750000000   0.750000000
   0.251789920   0.000000000   1.000000000
   0.251440099   0.000000000   0.500000000
   0.251440099   0.500000000   0.000000000
   0.251789920   0.500000000   0.500000000
   0.748210080   0.000000000   1.000000000
   0.748559901   0.000000000   0.500000000
   0.748559901   0.500000000   0.000000000
   0.748210080   0.500000000   0.500000000
   1.000000000   0.252428100   0.000887635
   1.000000000   0.247571900   0.499112365
   1.000000000   0.747571900   0.999112365
   1.000000000   0.752428100   0.500887635
   0.500000000   0.249112365   0.997571900
   0.500000000   0.250887635   0.502428100
   0.500000000   0.750887635   0.002428100
   0.500000000   0.749112365   0.497571900
   1.000000000   0.000887635   0.252428100
   1.000000000   0.999112365   0.747571900
   1.000000000   0.499112365   0.247571900
   1.000000000   0.500887635   0.752428100
   0.500000000   0.997571900   0.249112365
   0.500000000   0.002428100   0.750887635
   0.500000000   0.502428100   0.250887635
   0.500000000   0.497571900   0.749112365
Mg28Ni4O32
   1.00000000
   8.471471528  -0.000000000   0.000000000
  -0.000000000   8.475382565   0.000021418
   0.000000000   0.000021418   8.475382565
  Ni  Mg  O
  4  28  32
Direct configuration=     6
   1.000000000   0.000000000   0.000000000
   1.000000000   0.500000000   0.500000000
   0.500000000   0.250000000   0.250000000
   0.500000000   0.750000000   0.750000000
   1.000000000   0.000000000   0.500000000
   1.000000000   0.500000000   0.000000000
   0.500000000   0.000000000   0.000000000
   0.500000000   0.000000000   0.500000000
   0.500000000   0.500000000   0.000000000
   0.500000000   0.500000000   0.500000000
   0.000000000   0.250000000   0.250000000
   1.000000000   0.250000000   0.750000000
   1.000000000   0.750000000   0.250000000
   0.000000000   0.750000000   0.750000000
   0.500000000   0.250000000   0.750000000
   0.500000000   0.750000000   0.250000000
   0.250000000   0.999960789   0.250039211
   0.250000000   0.000039211   0.749960789
   0.250000000   0.500039211   0.249960789
   0.250000000   0.499960789   0.750039211
   0.750000000   0.999960789   0.250039211
   0.750000000   0.000039211   0.749960789
   0.750000000   0.500039211   0.249960789
   0.750000000   0.499960789   0.750039211
   0.250000000   0.250039211   0.999960789
   0.250000000   0.249960789   0.500039211
   0.250000000   0.749960789   0.000039211
   0.250000000   0.750039211   0.499960789
   0.750000000   0.250039211   0.999960789
   0.750000000   0.249960789   0.500039211
   0.750000000   0.749960789   0.000039211
   0.750000000   0.750039211   0.499960789
   0.248379439   0.250000000   0.250000000
   0.247723646   0.250000000   0.750000000
   0.247723646   0.750000000   0.250000000
   0.248379439   0.750000000   0.750000000
   0.751620561   0.250000000   0.250000000
   0.752276354   0.250000000   0.750000000
   0.752276354   0.750000000   0.250000000
   0.751620561   0.750000000   0.750000000
   0.251620561   0.000000000   0.000000000
   0.252276354   0.000000000   0.500000000
   0.252276354   0.500000000   0.000000000
   0.251620561   0.500000000   0.500000000
   0.748379439   0.000000000   0.000000000
   0.747723646   0.000000000   0.500000000
   0.747723646   0.500000000   0.000000000
   0.748379439   0.500000000   0.500000000
   1.000000000   0.252239415   0.000967364
   1.000000000   0.247760585   0.499032636
   1.000000000   0.747760585   0.999032636
   1.000000000   0.752239415   0.500967364
   0.500000000   0.249032636   0.997760585
   0.500000000   0.250967364   0.502239415
   0.500000000   0.750967364   0.002239415
   0.500000000   0.749032636   0.497760585
   1.000000000   0.000967364   0.252239415
   1.000000000   0.999032636   0.747760585
   1.000000000   0.499032636   0.247760585
   1.000000000   0.500967364   0.752239415
   0.500000000   0.997760585   0.249032636
   0.500000000   0.002239415   0.750967364
   0.500000000   0.502239415   0.250967364
   0.500000000   0.497760585   0.749032636
Mg28Ni4O32
   1.00000000
   8.478412891  -0.000000000   0.000000000
  -0.000000000   8.483215023   0.000030383
   0.000000000   0.000030383   8.483215023
  Ni  Mg  O
  4  28  32
Direct configuration=     7
   1.000000000   0.000000000   0.000000000
   1.000000000   0.500000000   0.500000000
   0.500000000   0.250000000   0.250000000
   0.500000000   0.750000000   0.750000000
   1.000000000   0.000000000   0.500000000
   1.000000000   0.500000000   0.000000000
   0.500000000   0.000000000   0.000000000
   0.500000000   0.000000000   0.500000000
   0.500000000   0.500000000   0.000000000
   0.500000000   0.500000000   0.500000000
   0.000000000   0.250000000   0.250000000
   1.000000000   0.250000000   0.750000000
   1.000000000   0.750000000   0.250000000
   0.000000000   0.750000000   0.750000000
   0.500000000   0.250000000   0.750000000
   0.500000000   0.750000000   0.250000000
   0.250000000   0.999898328   0.250101672
   0.250000000   0.000101672   0.749898328
   0.250000000   0.500101672   0.249898328
   0.250000000   0.499898328   0.750101672
   0.750000000   0.999898328   0.250101672
   0.750000000   0.000101672   0.749898328
   0.750000000   0.500101672   0.249898328
   0.750000000   0.499898328   0.750101672
   0.250000000   0.250101672   0.999898328
   0.250000000   0.249898328   0.500101672
   0.250000000   0.749898328   0.000101672
   0.250000000   0.750101672   0.499898328
   0.750000000   0.250101672   0.999898328
   0.750000000   0.249898328   0.500101672
   0.750000000   0.749898328   0.000101672
   0.750000000   0.750101672   0.499898328
   0.248800926   0.250000000   0.250000000
   0.247449766   0.250000000   0.750000000
   0.247449766   0.750000000   0.250000000
   0.248800926   0.750000000   0.750000000
   0.751199074   0.250000000   0.250000000
   0.752550234   0.250000000   0.750000000
   0.752550234   0.750000000   0.250000000
   0.751199074   0.750000000   0.750000000
   0.251199074   0.000000000   0.000000000
   0.252550234   0.000000000   0.500000000
   0.252550234   0.500000000   0.000000000
   0.251199074   0.500000000   0.500000000
   0.748800926   0.000000000   0.000000000
   0.747449766   0.000000000   0.500000000
   0.747449766   0.500000000   0.000000000
   0.748800926   0.500000000   0.500000000
   1.000000000   0.251899825   0.000877891
   1.000000000   0.248100175   0.499122109
   1.000000000   0.748100175   0.999122109
   1.000000000   0.751899825   0.500877891
   0.500000000   0.249122109   0.998100175
   0.500000000   0.250877891   0.501899825
   0.500000000   0.750877891   0.001899825
   0.500000000   0.749122109   0.498100175
   1.000000000   0.000877891   0.251899825
   1.000000000   0.999122109   0.748100175
   1.000000000   0.499122109   0.248100175
   1.000000000   0.500877891   0.751899825
   0.500000000   0.998100175   0.249122109
   0.500000000   0.001899825   0.750877891
   0.500000000   0.501899825   0.250877891
   0.500000000   0.498100175   0.749122109
Mg28Ni4O32
   1.00000000
   8.485723941  -0.000000000   0.000000000
  -0.000000000   8.491489796   0.000042716
   0.000000000   0.000042716   8.491489796
  Ni  Mg  O
  4  28  32
Direct configuration=     8
   1.000000000   0.000000000   0.000000000
   0.000000000   0.500000000   0.500000000
   0.500000000   0.250000000   0.250000000
   0.500000000   0.750000000   0.750000000
   1.000000000   0.000000000   0.500000000
   1.000000000   0.500000000   0.000000000
   0.500000000   0.000000000   0.000000000
   0.500000000   0.000000000   0.500000000
   0.500000000   0.500000000   0.000000000
   0.500000000   0.500000000   0.500000000
   0.000000000   0.250000000   0.250000000
   1.000000000   0.250000000   0.750000000
   1.000000000   0.750000000   0.250000000
   0.000000000   0.750000000   0.750000000
   0.500000000   0.250000000   0.750000000
   0.500000000   0.750000000   0.250000000
   0.250000000   0.000003071   0.249996929
   0.250000000   0.999996929   0.750003071
   0.250000000   0.499996929   0.250003071
   0.250000000   0.500003071   0.749996929
   0.750000000   0.000003071   0.249996929
   0.750000000   0.999996929   0.750003071
   0.750000000   0.499996929   0.250003071
   0.750000000   0.500003071   0.749996929
   0.250000000   0.249996929   0.000003071
   0.250000000   0.250003071   0.499996929
   0.250000000   0.750003071   0.999996929
   0.250000000   0.749996929   0.500003071
   0.750000000   0.249996929   0.000003071
   0.750000000   0.250003071   0.499996929
   0.750000000   0.750003071   0.999996929
   0.750000000   0.749996929   0.500003071
   0.249468542   0.250000000   0.250000000
   0.247664655   0.250000000   0.750000000
   0.247664655   0.750000000   0.250000000
   0.249468542   0.750000000   0.750000000
   0.750531458   0.250000000   0.250000000
   0.752335345   0.250000000   0.750000000
   0.752335345   0.750000000   0.250000000
   0.750531458   0.750000000   0.750000000
   0.250531458   0.000000000   0.000000000
   0.252335345   0.000000000   0.500000000
   0.252335345   0.500000000   0.000000000
   0.250531458   0.500000000   0.500000000
   0.749468542   0.000000000   0.000000000
   0.747664655   0.000000000   0.500000000
   0.747664655   0.500000000   0.000000000
   0.749468542   0.500000000   0.500000000
   1.000000000   0.251487087   0.000659167
   1.000000000   0.248512913   0.499340833
   1.000000000   0.748512913   0.999340833
   1.000000000   0.751487087   0.500659167
   0.500000000   0.249340833   0.998512913
   0.500000000   0.250659167   0.501487087
   0.500000000   0.750659167   0.001487087
   0.500000000   0.749340833   0.498512913
   1.000000000   0.000659167   0.251487087
   1.000000000   0.999340833   0.748512913
   1.000000000   0.499340833   0.248512913
   1.000000000   0.500659167   0.751487087
   0.500000000   0.998512913   0.249340833
   0.500000000   0.001487087   0.750659167
   0.500000000   0.501487087   0.250659167
   0.500000000   0.498512913   0.749340833
Mg28Ni4O32
   1.00000000
   8.490827411  -0.000000000   0.000000000
  -0.000000000   8.497298975   0.000053606
   0.000000000   0.000053606   8.497298975
  Ni  Mg  O
  4  28  32
Direct configuration=     9
   1.000000000   0.000000000   0.000000000
   1.000000000   0.500000000   0.500000000
   0.500000000   0.250000000   0.250000000
   0.500000000   0.750000000   0.750000000
   1.000000000   0.000000000   0.500000000
   1.000000000   0.500000000   0.000000000
   0.500000000   0.000000000   0.000000000
   0.500000000   0.000000000   0.500000000
   0.500000000   0.500000000   0.000000000
   0.500000000   0.500000000   0.500000000
   0.000000000   0.250000000   0.250000000
   1.000000000   0.250000000   0.750000000
   1.000000000   0.750000000   0.250000000
   0.000000000   0.750000000   0.750000000
   0.500000000   0.250000000   0.750000000
   0.500000000   0.750000000   0.250000000
   0.250000000   0.000248914   0.249751086
   0.250000000   0.999751086   0.750248914
   0.250000000   0.499751086   0.250248914
   0.250000000   0.500248914   0.749751086
   0.750000000   0.000248914   0.249751086
   0.750000000   0.999751086   0.750248914
   0.750000000   0.499751086   0.250248914
   0.750000000   0.500248914   0.749751086
   0.250000000   0.249751086   0.000248914
   0.250000000   0.250248914   0.499751086
   0.250000000   0.750248914   0.999751086
   0.250000000   0.749751086   0.500248914
   0.750000000   0.249751086   0.000248914
   0.750000000   0.250248914   0.499751086
   0.750000000   0.750248914   0.999751086
   0.750000000   0.749751086   0.500248914
   0.250005092   0.250000000   0.250000000
   0.248364129   0.250000000   0.750000000
   0.248364129   0.750000000   0.250000000
   0.250005092   0.750000000   0.750000000
   0.749994908   0.250000000   0.250000000
   0.751635871   0.250000000   0.750000000
   0.751635871   0.750000000   0.250000000
   0.749994908   0.750000000   0.750000000
   0.249994908   0.000000000   0.000000000
   0.251635871   0.000000000   0.500000000
   0.251635871   0.500000000   0.000000000
   0.249994908   0.500000000   0.500000000
   0.750005092   0.000000000   0.000000000
   0.748364129   0.000000000   0.500000000
   0.748364129   0.500000000   0.000000000
   0.750005092   0.500000000   0.500000000
   1.000000000   0.251281087   0.000449162
   1.000000000   0.248718913   0.499550838
   1.000000000   0.748718913   0.999550838
   1.000000000   0.751281087   0.500449162
   0.500000000   0.249550838   0.998718913
   0.500000000   0.250449162   0.501281087
   0.500000000   0.750449162   0.001281087
   0.500000000   0.749550838   0.498718913
   1.000000000   0.000449162   0.251281087
   1.000000000   0.999550838   0.748718913
   1.000000000   0.499550838   0.248718913
   1.000000000   0.500449162   0.751281087
   0.500000000   0.998718913   0.249550838
   0.500000000   0.001281087   0.750449162
   0.500000000   0.501281087   0.250449162
   0.500000000   0.498718913   0.749550838
Mg28Ni4O32
   1.00000000
   8.492778485  -0.000000000   0.000000000
  -0.000000000   8.499560388   0.000059246
   0.000000000   0.000059246   8.499560388
  Ni  Mg  O
  4  28  32
Direct configuration=     10
   1.000000000   0.000000000   0.000000000
   1.000000000   0.500000000   0.500000000
   0.500000000   0.250000000   0.250000000
   0.500000000   0.750000000   0.750000000
   1.000000000   0.000000000   0.500000000
   1.000000000   0.500000000   0.000000000
   0.500000000   0.000000000   0.000000000
   0.500000000   0.000000000   0.500000000
   0.500000000   0.500000000   0.000000000
   0.500000000   0.500000000   0.500000000
   0.000000000   0.250000000   0.250000000
   1.000000000   0.250000000   0.750000000
   1.000000000   0.750000000   0.250000000
   0.000000000   0.750000000   0.750000000
   0.500000000   0.250000000   0.750000000
   0.500000000   0.750000000   0.250000000
   0.250000000   0.000456037   0.249543963
   0.250000000   0.999543963   0.750456037
   0.250000000   0.499543963   0.250456037
   0.250000000   0.500456037   0.749543963
   0.750000000   0.000456037   0.249543963
   0.750000000   0.999543963   0.750456037
   0.750000000   0.499543963   0.250456037
   0.750000000   0.500456037   0.749543963
   0.250000000   0.249543963   0.000456037
   0.250000000   0.250456037   0.499543963
   0.250000000   0.750456037   0.999543963
   0.250000000   0.749543963   0.500456037
   0.750000000   0.249543963   0.000456037
   0.750000000   0.250456037   0.499543963
   0.750000000   0.750456037   0.999543963
   0.750000000   0.749543963   0.500456037
   0.250154330   0.250000000   0.250000000
   0.249106551   0.250000000   0.750000000
   0.249106551   0.750000000   0.250000000
   0.250154330   0.750000000   0.750000000
   0.749845670   0.250000000   0.250000000
   0.750893449   0.250000000   0.750000000
   0.750893449   0.750000000   0.250000000
   0.749845670   0.750000000   0.750000000
   0.249845670   0.000000000   0.000000000
   0.250893449   0.000000000   0.500000000
   0.250893449   0.500000000   0.000000000
   0.249845670   0.500000000   0.500000000
   0.750154330   0.000000000   0.000000000
   0.749106551   0.000000000   0.500000000
   0.749106551   0.500000000   0.000000000
   0.750154330   0.500000000   0.500000000
   1.000000000   0.251327102   0.000375747
   1.000000000   0.248672898   0.499624253
   1.000000000   0.748672898   0.999624253
   0.000000000   0.751327102   0.500375747
   0.500000000   0.249624253   0.998672898
   0.500000000   0.250375747   0.501327102
   0.500000000   0.750375747   0.001327102
   0.500000000   0.749624253   0.498672898
   1.000000000   0.000375747   0.251327102
   1.000000000   0.999624253   0.748672898
   1.000000000   0.499624253   0.248672898
   0.000000000   0.500375747   0.751327102
   0.500000000   0.998672898   0.249624253
   0.500000000   0.001327102   0.750375747
   0.500000000   0.501327102   0.250375747
   0.500000000   0.498672898   0.749624253
Mg28Ni4O32
   1.00000000
   8.492962557  -0.000000000   0.000000000
  -0.000000000   8.499820454   0.000060695
   0.000000000   0.000060695   8.499820454
  Ni  Mg  O
  4  28  32
Direct configuration=     11
   1.000000000   0.000000000   0.000000000
   1.000000000   0.500000000   0.500000000
   0.500000000   0.250000000   0.250000000
   0.500000000   0.750000000   0.750000000