********************************************************************************
*                       GENERAL UTILITY LATTICE PROGRAM                        *
*                                 Julian Gale                                  *
*                       Curtin Institute for Computation                       *
*                    School of Molecular and Life Sciences                     *
*                    Curtin University, Western Australia                      *
********************************************************************************
* Version = 6.4.0 * Last modified =  22nd December 2025                        *
********************************************************************************
*  optimise     - perform optimisation run                                     *
*  conp         - constant pressure calculation                                *
********************************************************************************
*  gamma-Fe2O3 (maghemite) Fe vacancies - configuration 15                     *
********************************************************************************


  Job Started  at 07:47.56  6th April      2026                               

  Number of CPUs =     1


  Total number of configurations input =      1

********************************************************************************
*  Input for Configuration =   1                                               *
********************************************************************************

  Formula = Fe64O96

  Number of irreducible atoms/shells =     256


  Total number atoms/shells =     256

  Dimensionality = 3               :  Bulk   



  Cartesian lattice vectors (Angstroms) :

        8.344000    0.000000    0.000000
        0.000000    8.344000    0.000000
        0.000000    0.000000   25.032000

  Cell parameters (Angstroms/Degrees):

  a =       8.3440    alpha =  90.0000
  b =       8.3440    beta  =  90.0000
  c =      25.0320    gamma =  90.0000

  Initial cell volume =        1742.786315 Angs**3

  Temperature of configuration =   0.00     K 

  Pressure of configuration =         0.000 GPa 

  Fractional coordinates of asymmetric unit :

--------------------------------------------------------------------------------
   No.  Atomic       x           y          z         Charge      Occupancy
        Label      (Frac)      (Frac)     (Frac)        (e)         (Frac)  
--------------------------------------------------------------------------------
      1 Fe    c    0.625000    0.625000    0.208333     3.00000    1.000000    
      2 Fe    c    0.625000 *  0.625000 *  0.541667 *   3.00000    1.000000    
      3 Fe    c    0.125000 *  0.875000 *  0.458333 *   3.00000    1.000000    
      4 Fe    c    0.375000 *  0.125000 *  0.291667 *   3.00000    1.000000    
      5 Fe    c    0.992100 *  0.992100 *  0.330700 *   3.00000    1.000000    
      6 Fe    c    0.992100 *  0.992100 *  0.664033 *   3.00000    1.000000    
      7 Fe    c    0.992100 *  0.992100 *  0.997367 *   3.00000    1.000000    
      8 Fe    c    0.757900 *  0.242100 *  0.247367 *   3.00000    1.000000    
      9 Fe    c    0.757900 *  0.242100 *  0.580700 *   3.00000    1.000000    
     10 Fe    c    0.757900 *  0.242100 *  0.914033 *   3.00000    1.000000    
     11 Fe    c    0.507900 *  0.007900 *  0.164033 *   3.00000    1.000000    
     12 Fe    c    0.507900 *  0.007900 *  0.497367 *   3.00000    1.000000    
     13 Fe    c    0.507900 *  0.007900 *  0.830700 *   3.00000    1.000000    
     14 Fe    c    0.742100 *  0.757900 *  0.080700 *   3.00000    1.000000    
     15 Fe    c    0.742100 *  0.757900 *  0.414033 *   3.00000    1.000000    
     16 Fe    c    0.742100 *  0.757900 *  0.747367 *   3.00000    1.000000    
     17 Fe    c    0.492100 *  0.507900 *  0.002633 *   3.00000    1.000000    
     18 Fe    c    0.492100 *  0.507900 *  0.335967 *   3.00000    1.000000    
     19 Fe    c    0.492100 *  0.507900 *  0.669300 *   3.00000    1.000000    
     20 Fe    c    0.257900 *  0.257900 *  0.085967 *   3.00000    1.000000    
     21 Fe    c    0.257900 *  0.257900 *  0.419300 *   3.00000    1.000000    
     22 Fe    c    0.257900 *  0.257900 *  0.752633 *   3.00000    1.000000    
     23 Fe    c    0.007900 *  0.492100 *  0.169300 *   3.00000    1.000000    
     24 Fe    c    0.007900 *  0.492100 *  0.502633 *   3.00000    1.000000    
     25 Fe    c    0.007900 *  0.492100 *  0.835967 *   3.00000    1.000000    
     26 Fe    c    0.242100 *  0.742100 *  0.252633 *   3.00000    1.000000    
     27 Fe    c    0.242100 *  0.742100 *  0.585967 *   3.00000    1.000000    
     28 Fe    c    0.242100 *  0.742100 *  0.919300 *   3.00000    1.000000    
     29 Fe    c    0.865000 *  0.615000 *  0.291667 *   3.00000    1.000000    
     30 Fe    c    0.865000 *  0.615000 *  0.625000 *   3.00000    1.000000    
     31 Fe    c    0.865000 *  0.615000 *  0.958333 *   3.00000    1.000000    
     32 Fe    c    0.135000 *  0.115000 *  0.208333 *   3.00000    1.000000    
     33 Fe    c    0.135000 *  0.115000 *  0.541667 *   3.00000    1.000000    
     34 Fe    c    0.135000 *  0.115000 *  0.875000 *   3.00000    1.000000    
     35 Fe    c    0.635000 *  0.385000 *  0.125000 *   3.00000    1.000000    
     36 Fe    c    0.635000 *  0.385000 *  0.458333 *   3.00000    1.000000    
     37 Fe    c    0.635000 *  0.385000 *  0.791667 *   3.00000    1.000000    
     38 Fe    c    0.365000 *  0.885000 *  0.041667 *   3.00000    1.000000    
     39 Fe    c    0.365000 *  0.885000 *  0.375000 *   3.00000    1.000000    
     40 Fe    c    0.365000 *  0.885000 *  0.708333 *   3.00000    1.000000    
     41 Fe    c    0.875000 *  0.865000 *  0.205000 *   3.00000    1.000000    
     42 Fe    c    0.875000 *  0.865000 *  0.538333 *   3.00000    1.000000    
     43 Fe    c    0.875000 *  0.865000 *  0.871667 *   3.00000    1.000000    
     44 Fe    c    0.625000 *  0.135000 *  0.038333 *   3.00000    1.000000    
     45 Fe    c    0.625000 *  0.135000 *  0.371667 *   3.00000    1.000000    
     46 Fe    c    0.625000 *  0.135000 *  0.705000 *   3.00000    1.000000    
     47 Fe    c    0.375000 *  0.635000 *  0.128333 *   3.00000    1.000000    
     48 Fe    c    0.375000 *  0.635000 *  0.461667 *   3.00000    1.000000    
     49 Fe    c    0.375000 *  0.635000 *  0.795000 *   3.00000    1.000000    
     50 Fe    c    0.125000 *  0.365000 *  0.295000 *   3.00000    1.000000    
     51 Fe    c    0.125000 *  0.365000 *  0.628333 *   3.00000    1.000000    
     52 Fe    c    0.125000 *  0.365000 *  0.961667 *   3.00000    1.000000    
     53 Fe    c    0.615000 *  0.875000 *  0.288333 *   3.00000    1.000000    
     54 Fe    c    0.615000 *  0.875000 *  0.621667 *   3.00000    1.000000    
     55 Fe    c    0.615000 *  0.875000 *  0.955000 *   3.00000    1.000000    
     56 Fe    c    0.115000 *  0.625000 *  0.045000 *   3.00000    1.000000    
     57 Fe    c    0.115000 *  0.625000 *  0.378333 *   3.00000    1.000000    
     58 Fe    c    0.115000 *  0.625000 *  0.711667 *   3.00000    1.000000    
     59 Fe    c    0.385000 *  0.375000 *  0.211667 *   3.00000    1.000000    
     60 Fe    c    0.385000 *  0.375000 *  0.545000 *   3.00000    1.000000    
     61 Fe    c    0.385000 *  0.375000 *  0.878333 *   3.00000    1.000000    
     62 Fe    c    0.885000 *  0.125000 *  0.121667 *   3.00000    1.000000    
     63 Fe    c    0.885000 *  0.125000 *  0.455000 *   3.00000    1.000000    
     64 Fe    c    0.885000 *  0.125000 *  0.788333 *   3.00000    1.000000    
     65 O2    c    0.381700 *  0.381700 *  0.127233 *   0.86902    1.000000    
     66 O2    c    0.381700 *  0.381700 *  0.460567 *   0.86902    1.000000    
     67 O2    c    0.381700 *  0.381700 *  0.793900 *   0.86902    1.000000    
     68 O2    c    0.368300 *  0.631700 *  0.043900 *   0.86902    1.000000    
     69 O2    c    0.368300 *  0.631700 *  0.377233 *   0.86902    1.000000    
     70 O2    c    0.368300 *  0.631700 *  0.710567 *   0.86902    1.000000    
     71 O2    c    0.118300 *  0.618300 *  0.293900 *   0.86902    1.000000    
     72 O2    c    0.118300 *  0.618300 *  0.627233 *   0.86902    1.000000    
     73 O2    c    0.118300 *  0.618300 *  0.960567 *   0.86902    1.000000    
     74 O2    c    0.131700 *  0.368300 *  0.210567 *   0.86902    1.000000    
     75 O2    c    0.131700 *  0.368300 *  0.543900 *   0.86902    1.000000    
     76 O2    c    0.131700 *  0.368300 *  0.877233 *   0.86902    1.000000    
     77 O2    c    0.881700 *  0.118300 *  0.206100 *   0.86902    1.000000    
     78 O2    c    0.881700 *  0.118300 *  0.539433 *   0.86902    1.000000    
     79 O2    c    0.881700 *  0.118300 *  0.872767 *   0.86902    1.000000    
     80 O2    c    0.868300 *  0.868300 *  0.289433 *   0.86902    1.000000    
     81 O2    c    0.868300 *  0.868300 *  0.622767 *   0.86902    1.000000    
     82 O2    c    0.868300 *  0.868300 *  0.956100 *   0.86902    1.000000    
     83 O2    c    0.618300 *  0.881700 *  0.039433 *   0.86902    1.000000    
     84 O2    c    0.618300 *  0.881700 *  0.372767 *   0.86902    1.000000    
     85 O2    c    0.618300 *  0.881700 *  0.706100 *   0.86902    1.000000    
     86 O2    c    0.631700 *  0.131700 *  0.122767 *   0.86902    1.000000    
     87 O2    c    0.631700 *  0.131700 *  0.456100 *   0.86902    1.000000    
     88 O2    c    0.631700 *  0.131700 *  0.789433 *   0.86902    1.000000    
     89 O2    c    0.381700 *  0.873600 *  0.293967 *   0.86902    1.000000    
     90 O2    c    0.381700 *  0.873600 *  0.627300 *   0.86902    1.000000    
     91 O2    c    0.381700 *  0.873600 *  0.960633 *   0.86902    1.000000    
     92 O2    c    0.876400 *  0.631700 *  0.210633 *   0.86902    1.000000    
     93 O2    c    0.876400 *  0.631700 *  0.543967 *   0.86902    1.000000    
     94 O2    c    0.876400 *  0.631700 *  0.877300 *   0.86902    1.000000    
     95 O2    c    0.118300 *  0.126400 *  0.127300 *   0.86902    1.000000    
     96 O2    c    0.118300 *  0.126400 *  0.460633 *   0.86902    1.000000    
     97 O2    c    0.118300 *  0.126400 *  0.793967 *   0.86902    1.000000    
     98 O2    c    0.623600 *  0.368300 *  0.043967 *   0.86902    1.000000    
     99 O2    c    0.623600 *  0.368300 *  0.377300 *   0.86902    1.000000    
    100 O2    c    0.623600 *  0.368300 *  0.710633 *   0.86902    1.000000    
    101 O2    c    0.881700 *  0.626400 *  0.039367 *   0.86902    1.000000    
    102 O2    c    0.881700 *  0.626400 *  0.372700 *   0.86902    1.000000    
    103 O2    c    0.881700 *  0.626400 *  0.706033 *   0.86902    1.000000    
    104 O2    c    0.376400 *  0.868300 *  0.122700 *   0.86902    1.000000    
    105 O2    c    0.376400 *  0.868300 *  0.456033 *   0.86902    1.000000    
    106 O2    c    0.376400 *  0.868300 *  0.789367 *   0.86902    1.000000    
    107 O2    c    0.618300 *  0.373600 *  0.206033 *   0.86902    1.000000    
    108 O2    c    0.618300 *  0.373600 *  0.539367 *   0.86902    1.000000    
    109 O2    c    0.618300 *  0.373600 *  0.872700 *   0.86902    1.000000    
    110 O2    c    0.123600 *  0.131700 *  0.289367 *   0.86902    1.000000    
    111 O2    c    0.123600 *  0.131700 *  0.622700 *   0.86902    1.000000    
    112 O2    c    0.123600 *  0.131700 *  0.956033 *   0.86902    1.000000    
    113 O2    c    0.881900 *  0.381700 *  0.291200 *   0.86902    1.000000    
    114 O2    c    0.881900 *  0.381700 *  0.624533 *   0.86902    1.000000    
    115 O2    c    0.881900 *  0.381700 *  0.957867 *   0.86902    1.000000    
    116 O2    c    0.631900 *  0.876400 *  0.210567 *   0.86902    1.000000    
    117 O2    c    0.631900 *  0.876400 *  0.543900 *   0.86902    1.000000    
    118 O2    c    0.631900 *  0.876400 *  0.877233 *   0.86902    1.000000    
    119 O2    c    0.381900 *  0.118300 *  0.042133 *   0.86902    1.000000    
    120 O2    c    0.381900 *  0.118300 *  0.375467 *   0.86902    1.000000    
    121 O2    c    0.381900 *  0.118300 *  0.708800 *   0.86902    1.000000    
    122 O2    c    0.131900 *  0.623600 *  0.122767 *   0.86902    1.000000    
    123 O2    c    0.131900 *  0.623600 *  0.456100 *   0.86902    1.000000    
    124 O2    c    0.131900 *  0.623600 *  0.789433 *   0.86902    1.000000    
    125 O2    c    0.118100 *  0.881700 *  0.208800 *   0.86902    1.000000    
    126 O2    c    0.118100 *  0.881700 *  0.542133 *   0.86902    1.000000    
    127 O2    c    0.118100 *  0.881700 *  0.875467 *   0.86902    1.000000    
    128 O2    c    0.368100 *  0.376400 *  0.289433 *   0.86902    1.000000    
    129 O2    c    0.368100 *  0.376400 *  0.622767 *   0.86902    1.000000    
    130 O2    c    0.368100 *  0.376400 *  0.956100 *   0.86902    1.000000    
    131 O2    c    0.618100 *  0.618300 *  0.124533 *   0.86902    1.000000    
    132 O2    c    0.618100 *  0.618300 *  0.457867 *   0.86902    1.000000    
    133 O2    c    0.618100 *  0.618300 *  0.791200 *   0.86902    1.000000    
    134 O2    c    0.868100 *  0.123600 *  0.043900 *   0.86902    1.000000    
    135 O2    c    0.868100 *  0.123600 *  0.377233 *   0.86902    1.000000    
    136 O2    c    0.868100 *  0.123600 *  0.710567 *   0.86902    1.000000    
    137 O2    c    0.873600 *  0.881900 *  0.127233 *   0.86902    1.000000    
    138 O2    c    0.873600 *  0.881900 *  0.460567 *   0.86902    1.000000    
    139 O2    c    0.873600 *  0.881900 *  0.793900 *   0.86902    1.000000    
    140 O2    c    0.631700 *  0.631900 *  0.292133 *   0.86902    1.000000    
    141 O2    c    0.631700 *  0.631900 *  0.625467 *   0.86902    1.000000    
    142 O2    c    0.631700 *  0.631900 *  0.958800 *   0.86902    1.000000    
    143 O2    c    0.126400 *  0.381900 *  0.039433 *   0.86902    1.000000    
    144 O2    c    0.126400 *  0.381900 *  0.372767 *   0.86902    1.000000    
    145 O2    c    0.126400 *  0.381900 *  0.706100 *   0.86902    1.000000    
    146 O2    c    0.368300 *  0.131900 *  0.207867 *   0.86902    1.000000    
    147 O2    c    0.368300 *  0.131900 *  0.541200 *   0.86902    1.000000    
    148 O2    c    0.368300 *  0.131900 *  0.874533 *   0.86902    1.000000    
    149 O2    c    0.626400 *  0.118100 *  0.293900 *   0.86902    1.000000    
    150 O2    c    0.626400 *  0.118100 *  0.627233 *   0.86902    1.000000    
    151 O2    c    0.626400 *  0.118100 *  0.960567 *   0.86902    1.000000    
    152 O2    c    0.868300 *  0.368100 *  0.125467 *   0.86902    1.000000    
    153 O2    c    0.868300 *  0.368100 *  0.458800 *   0.86902    1.000000    
    154 O2    c    0.868300 *  0.368100 *  0.792133 *   0.86902    1.000000    
    155 O2    c    0.373600 *  0.618100 *  0.206100 *   0.86902    1.000000    
    156 O2    c    0.373600 *  0.618100 *  0.539433 *   0.86902    1.000000    
    157 O2    c    0.373600 *  0.618100 *  0.872767 *   0.86902    1.000000    
    158 O2    c    0.131700 *  0.868100 *  0.041200 *   0.86902    1.000000    
    159 O2    c    0.131700 *  0.868100 *  0.374533 *   0.86902    1.000000    
    160 O2    c    0.131700 *  0.868100 *  0.707867 *   0.86902    1.000000    
    161 O2    s    0.381700 *  0.381700 *  0.127233 *  -2.86902    1.000000    
    162 O2    s    0.381700 *  0.381700 *  0.460567 *  -2.86902    1.000000    
    163 O2    s    0.381700 *  0.381700 *  0.793900 *  -2.86902    1.000000    
    164 O2    s    0.368300 *  0.631700 *  0.043900 *  -2.86902    1.000000    
    165 O2    s    0.368300 *  0.631700 *  0.377233 *  -2.86902    1.000000    
    166 O2    s    0.368300 *  0.631700 *  0.710567 *  -2.86902    1.000000    
    167 O2    s    0.118300 *  0.618300 *  0.293900 *  -2.86902    1.000000    
    168 O2    s    0.118300 *  0.618300 *  0.627233 *  -2.86902    1.000000    
    169 O2    s    0.118300 *  0.618300 *  0.960567 *  -2.86902    1.000000    
    170 O2    s    0.131700 *  0.368300 *  0.210567 *  -2.86902    1.000000    
    171 O2    s    0.131700 *  0.368300 *  0.543900 *  -2.86902    1.000000    
    172 O2    s    0.131700 *  0.368300 *  0.877233 *  -2.86902    1.000000    
    173 O2    s    0.881700 *  0.118300 *  0.206100 *  -2.86902    1.000000    
    174 O2    s    0.881700 *  0.118300 *  0.539433 *  -2.86902    1.000000    
    175 O2    s    0.881700 *  0.118300 *  0.872767 *  -2.86902    1.000000    
    176 O2    s    0.868300 *  0.868300 *  0.289433 *  -2.86902    1.000000    
    177 O2    s    0.868300 *  0.868300 *  0.622767 *  -2.86902    1.000000    
    178 O2    s    0.868300 *  0.868300 *  0.956100 *  -2.86902    1.000000    
    179 O2    s    0.618300 *  0.881700 *  0.039433 *  -2.86902    1.000000    
    180 O2    s    0.618300 *  0.881700 *  0.372767 *  -2.86902    1.000000    
    181 O2    s    0.618300 *  0.881700 *  0.706100 *  -2.86902    1.000000    
    182 O2    s    0.631700 *  0.131700 *  0.122767 *  -2.86902    1.000000    
    183 O2    s    0.631700 *  0.131700 *  0.456100 *  -2.86902    1.000000    
    184 O2    s    0.631700 *  0.131700 *  0.789433 *  -2.86902    1.000000    
    185 O2    s    0.381700 *  0.873600 *  0.293967 *  -2.86902    1.000000    
    186 O2    s    0.381700 *  0.873600 *  0.627300 *  -2.86902    1.000000    
    187 O2    s    0.381700 *  0.873600 *  0.960633 *  -2.86902    1.000000    
    188 O2    s    0.876400 *  0.631700 *  0.210633 *  -2.86902    1.000000    
    189 O2    s    0.876400 *  0.631700 *  0.543967 *  -2.86902    1.000000    
    190 O2    s    0.876400 *  0.631700 *  0.877300 *  -2.86902    1.000000    
    191 O2    s    0.118300 *  0.126400 *  0.127300 *  -2.86902    1.000000    
    192 O2    s    0.118300 *  0.126400 *  0.460633 *  -2.86902    1.000000    
    193 O2    s    0.118300 *  0.126400 *  0.793967 *  -2.86902    1.000000    
    194 O2    s    0.623600 *  0.368300 *  0.043967 *  -2.86902    1.000000    
    195 O2    s    0.623600 *  0.368300 *  0.377300 *  -2.86902    1.000000    
    196 O2    s    0.623600 *  0.368300 *  0.710633 *  -2.86902    1.000000    
    197 O2    s    0.881700 *  0.626400 *  0.039367 *  -2.86902    1.000000    
    198 O2    s    0.881700 *  0.626400 *  0.372700 *  -2.86902    1.000000    
    199 O2    s    0.881700 *  0.626400 *  0.706033 *  -2.86902    1.000000    
    200 O2    s    0.376400 *  0.868300 *  0.122700 *  -2.86902    1.000000    
    201 O2    s    0.376400 *  0.868300 *  0.456033 *  -2.86902    1.000000    
    202 O2    s    0.376400 *  0.868300 *  0.789367 *  -2.86902    1.000000    
    203 O2    s    0.618300 *  0.373600 *  0.206033 *  -2.86902    1.000000    
    204 O2    s    0.618300 *  0.373600 *  0.539367 *  -2.86902    1.000000    
    205 O2    s    0.618300 *  0.373600 *  0.872700 *  -2.86902    1.000000    
    206 O2    s    0.123600 *  0.131700 *  0.289367 *  -2.86902    1.000000    
    207 O2    s    0.123600 *  0.131700 *  0.622700 *  -2.86902    1.000000    
    208 O2    s    0.123600 *  0.131700 *  0.956033 *  -2.86902    1.000000    
    209 O2    s    0.881900 *  0.381700 *  0.291200 *  -2.86902    1.000000    
    210 O2    s    0.881900 *  0.381700 *  0.624533 *  -2.86902    1.000000    
    211 O2    s    0.881900 *  0.381700 *  0.957867 *  -2.86902    1.000000    
    212 O2    s    0.631900 *  0.876400 *  0.210567 *  -2.86902    1.000000    
    213 O2    s    0.631900 *  0.876400 *  0.543900 *  -2.86902    1.000000    
    214 O2    s    0.631900 *  0.876400 *  0.877233 *  -2.86902    1.000000    
    215 O2    s    0.381900 *  0.118300 *  0.042133 *  -2.86902    1.000000    
    216 O2    s    0.381900 *  0.118300 *  0.375467 *  -2.86902    1.000000    
    217 O2    s    0.381900 *  0.118300 *  0.708800 *  -2.86902    1.000000    
    218 O2    s    0.131900 *  0.623600 *  0.122767 *  -2.86902    1.000000    
    219 O2    s    0.131900 *  0.623600 *  0.456100 *  -2.86902    1.000000    
    220 O2    s    0.131900 *  0.623600 *  0.789433 *  -2.86902    1.000000    
    221 O2    s    0.118100 *  0.881700 *  0.208800 *  -2.86902    1.000000    
    222 O2    s    0.118100 *  0.881700 *  0.542133 *  -2.86902    1.000000    
    223 O2    s    0.118100 *  0.881700 *  0.875467 *  -2.86902    1.000000    
    224 O2    s    0.368100 *  0.376400 *  0.289433 *  -2.86902    1.000000    
    225 O2    s    0.368100 *  0.376400 *  0.622767 *  -2.86902    1.000000    
    226 O2    s    0.368100 *  0.376400 *  0.956100 *  -2.86902    1.000000    
    227 O2    s    0.618100 *  0.618300 *  0.124533 *  -2.86902    1.000000    
    228 O2    s    0.618100 *  0.618300 *  0.457867 *  -2.86902    1.000000    
    229 O2    s    0.618100 *  0.618300 *  0.791200 *  -2.86902    1.000000    
    230 O2    s    0.868100 *  0.123600 *  0.043900 *  -2.86902    1.000000    
    231 O2    s    0.868100 *  0.123600 *  0.377233 *  -2.86902    1.000000    
    232 O2    s    0.868100 *  0.123600 *  0.710567 *  -2.86902    1.000000    
    233 O2    s    0.873600 *  0.881900 *  0.127233 *  -2.86902    1.000000    
    234 O2    s    0.873600 *  0.881900 *  0.460567 *  -2.86902    1.000000    
    235 O2    s    0.873600 *  0.881900 *  0.793900 *  -2.86902    1.000000    
    236 O2    s    0.631700 *  0.631900 *  0.292133 *  -2.86902    1.000000    
    237 O2    s    0.631700 *  0.631900 *  0.625467 *  -2.86902    1.000000    
    238 O2    s    0.631700 *  0.631900 *  0.958800 *  -2.86902    1.000000    
    239 O2    s    0.126400 *  0.381900 *  0.039433 *  -2.86902    1.000000    
    240 O2    s    0.126400 *  0.381900 *  0.372767 *  -2.86902    1.000000    
    241 O2    s    0.126400 *  0.381900 *  0.706100 *  -2.86902    1.000000    
    242 O2    s    0.368300 *  0.131900 *  0.207867 *  -2.86902    1.000000    
    243 O2    s    0.368300 *  0.131900 *  0.541200 *  -2.86902    1.000000    
    244 O2    s    0.368300 *  0.131900 *  0.874533 *  -2.86902    1.000000    
    245 O2    s    0.626400 *  0.118100 *  0.293900 *  -2.86902    1.000000    
    246 O2    s    0.626400 *  0.118100 *  0.627233 *  -2.86902    1.000000    
    247 O2    s    0.626400 *  0.118100 *  0.960567 *  -2.86902    1.000000    
    248 O2    s    0.868300 *  0.368100 *  0.125467 *  -2.86902    1.000000    
    249 O2    s    0.868300 *  0.368100 *  0.458800 *  -2.86902    1.000000    
    250 O2    s    0.868300 *  0.368100 *  0.792133 *  -2.86902    1.000000    
    251 O2    s    0.373600 *  0.618100 *  0.206100 *  -2.86902    1.000000    
    252 O2    s    0.373600 *  0.618100 *  0.539433 *  -2.86902    1.000000    
    253 O2    s    0.373600 *  0.618100 *  0.872767 *  -2.86902    1.000000    
    254 O2    s    0.131700 *  0.868100 *  0.041200 *  -2.86902    1.000000    
    255 O2    s    0.131700 *  0.868100 *  0.374533 *  -2.86902    1.000000    
    256 O2    s    0.131700 *  0.868100 *  0.707867 *  -2.86902    1.000000    
--------------------------------------------------------------------------------



********************************************************************************
*  General input information                                                   *
********************************************************************************

  Species output for all configurations : 

--------------------------------------------------------------------------------
  Species    Type    Atomic    Atomic    Charge       Radii (Angs)     Library
                     Number     Mass       (e)     Cova   Ionic  VDW   Symbol
--------------------------------------------------------------------------------
    Fe       Core       26      55.85   3.000000   1.340  0.000  2.000          
    O2       Core        8      16.00   0.869020   0.730  0.000  1.360          
    O2       Shell       8       0.00  -2.869020   0.730  0.000  1.360          
--------------------------------------------------------------------------------


  Lattice summation method               =    Ewald          (3-D)
                                         =    Parry          (2-D)
                                         =    Saunders et al (1-D)
  Accuracy factor for lattice sums       =   12.000


  Analytic derivatives to be used

  Time limit = Infinity

  Maximum range for interatomic potentials =    100000.000000 Angstroms

  General interatomic potentials :

--------------------------------------------------------------------------------
Atom  Types   Potential      Parameter       Value         Units   Cutoffs(Ang)
  1     2                                                            Min /  Max 
--------------------------------------------------------------------------------
Fe   c O2   s Buckingham    Buckingham A     1102.4000    eV        0.000 10.000
                            Buckingham rho  0.32990000    Ang       
                            Buckingham C     0.0000000    eV*Ang^6  
--------------------------------------------------------------------------------
O2   s O2   s Buckingham    Buckingham A     22764.000    eV        0.000 12.000
                            Buckingham rho  0.14900000    Ang       
                            Buckingham C     27.879000    eV*Ang^6  
--------------------------------------------------------------------------------
O2   c O2   s Spring (c-s)  Spring k 2       74.920000    eV*Ang^-2 0.000  0.800
                            Spring k 4       0.0000000    eV*Ang^-4 
--------------------------------------------------------------------------------

********************************************************************************
*  Output for configuration   1                                                *
********************************************************************************


  Components of energy : 

--------------------------------------------------------------------------------
  Interatomic potentials     =         905.54763483 eV    
  Monopole - monopole (real) =       -3796.49086425 eV    
  Monopole - monopole (recip)=       -1738.26621943 eV    
  Monopole - monopole (total)=       -5534.75708368 eV    
--------------------------------------------------------------------------------
  Total lattice energy       =       -4629.20944885 eV    
--------------------------------------------------------------------------------
  Total lattice energy       =         -446647.9479 kJ/(mole unit cells)
--------------------------------------------------------------------------------


  Number of variables =      771

  Maximum number of calculations  =          1000
  Maximum Hessian update interval =            10
  Maximum step size               =   1.000000000
  Maximum parameter tolerance     =   0.000010000
  Maximum function  tolerance     =   0.000010000
  Maximum gradient  tolerance     =   0.001000000
  Maximum gradient  component     =   0.010000000

  Symmetry not applied to optimisation

  Cell parameters to be optimised using strains

  Newton-Raphson optimiser to be used

  BFGS hessian update to be used

  Hessian eigenvalue shifts to be used to ensure all values are positive

  Lower half triangular hessian to be used

  Start of bulk optimisation :

  Cycle:      0 Energy:     -4629.209449  Gnorm:      6.313609  CPU:    0.299
  ** Hessian lowest eigenvalue is negative =  -8.176E+01
  ** Hessian calculated **
  Cycle:      1 Energy:     -4736.742939  Gnorm:      2.826846  CPU:    0.763
  ** Hessian lowest eigenvalue is negative =  -2.056E+03
  ** Hessian calculated **
  Cycle:      2 Energy:     -4770.130958  Gnorm:      0.671359  CPU:    1.432
  ** Hessian lowest eigenvalue is negative =  -3.308E+01
  ** Hessian calculated **
  Cycle:      3 Energy:     -4779.866758  Gnorm:      0.543602  CPU:    2.121
  Cycle:      4 Energy:     -4788.565875  Gnorm:      0.384632  CPU:    2.364
  Cycle:      5 Energy:     -4791.744089  Gnorm:      0.261191  CPU:    2.558
  Cycle:      6 Energy:     -4792.983732  Gnorm:      0.161556  CPU:    2.750
  Cycle:      7 Energy:     -4793.828745  Gnorm:      0.103562  CPU:    2.986
  Cycle:      8 Energy:     -4794.185519  Gnorm:      0.084203  CPU:    3.178
  Cycle:      9 Energy:     -4794.379838  Gnorm:      0.062998  CPU:    3.370
  Cycle:     10 Energy:     -4794.498520  Gnorm:      0.042905  CPU:    3.563
  Cycle:     11 Energy:     -4794.566428  Gnorm:      0.034294  CPU:    3.755
  Cycle:     12 Energy:     -4794.602128  Gnorm:      0.029768  CPU:    3.947
  ** Hessian lowest eigenvalue is negative =  -7.108E+01
  ** Hessian calculated **
  Cycle:     13 Energy:     -4794.711512  Gnorm:      0.043721  CPU:    4.578
  Cycle:     14 Energy:     -4794.732259  Gnorm:      0.057080  CPU:    4.811
  Cycle:     15 Energy:     -4794.881245  Gnorm:      0.051152  CPU:    5.045
  Cycle:     16 Energy:     -4794.946435  Gnorm:      0.052849  CPU:    5.237
  Cycle:     17 Energy:     -4795.039264  Gnorm:      0.052744  CPU:    5.471
  Cycle:     18 Energy:     -4795.088621  Gnorm:      0.044671  CPU:    5.663
  Cycle:     19 Energy:     -4795.151764  Gnorm:      0.032284  CPU:    5.897
  Cycle:     20 Energy:     -4795.201409  Gnorm:      0.034329  CPU:    6.089
  Cycle:     21 Energy:     -4795.241165  Gnorm:      0.016561  CPU:    6.324
  Cycle:     22 Energy:     -4795.258740  Gnorm:      0.009416  CPU:    6.516
  ** Hessian calculated **
  Cycle:     23 Energy:     -4795.264282  Gnorm:      0.009954  CPU:    7.190
  Cycle:     24 Energy:     -4795.277903  Gnorm:      0.003412  CPU:    7.425
  Cycle:     25 Energy:     -4795.278413  Gnorm:      0.000646  CPU:    7.660
  Cycle:     26 Energy:     -4795.278457  Gnorm:      0.000322  CPU:    7.896
  Cycle:     27 Energy:     -4795.278457  Gnorm:      0.000302  CPU:    8.256
  Cycle:     28 Energy:     -4795.278458  Gnorm:      0.000292  CPU:    8.576
  Cycle:     29 Energy:     -4795.278458  Gnorm:      0.000286  CPU:    8.895
  Cycle:     30 Energy:     -4795.278458  Gnorm:      0.000284  CPU:    9.298
  Cycle:     31 Energy:     -4795.278458  Gnorm:      0.000282  CPU:    9.575
  Cycle:     32 Energy:     -4795.278458  Gnorm:      0.000282  CPU:    9.767
  ** Hessian calculated **
  Cycle:     33 Energy:     -4795.278458  Gnorm:      0.000281  CPU:   10.697
  ** Hessian calculated **
  Cycle:     34 Energy:     -4795.278459  Gnorm:      0.000246  CPU:   11.797
  Cycle:     35 Energy:     -4795.278459  Gnorm:      0.000242  CPU:   12.329
  Cycle:     36 Energy:     -4795.278459  Gnorm:      0.000243  CPU:   12.649
  Cycle:     37 Energy:     -4795.278459  Gnorm:      0.000243  CPU:   12.841
  Cycle:     38 Energy:     -4795.278459  Gnorm:      0.000243  CPU:   13.033
  Cycle:     39 Energy:     -4795.278459  Gnorm:      0.000243  CPU:   13.225
  Cycle:     40 Energy:     -4795.278459  Gnorm:      0.000243  CPU:   13.418
  Cycle:     41 Energy:     -4795.278459  Gnorm:      0.000242  CPU:   13.568
  Cycle:     42 Energy:     -4795.278459  Gnorm:      0.000242  CPU:   13.717
  Cycle:     43 Energy:     -4795.278459  Gnorm:      0.000242  CPU:   13.867
  ** Hessian calculated **
  Cycle:     44 Energy:     -4795.278459  Gnorm:      0.000243  CPU:   14.838
  ** Hessian calculated **
  Cycle:     45 Energy:     -4795.278459  Gnorm:      0.000258  CPU:   15.725
  Cycle:     46 Energy:     -4795.278459  Gnorm:      0.000251  CPU:   15.917
  Cycle:     47 Energy:     -4795.278459  Gnorm:      0.000247  CPU:   16.194
  Cycle:     48 Energy:     -4795.278459  Gnorm:      0.000245  CPU:   16.386
  Cycle:     49 Energy:     -4795.278459  Gnorm:      0.000244  CPU:   16.663
  Cycle:     50 Energy:     -4795.278459  Gnorm:      0.000243  CPU:   16.855
  Cycle:     51 Energy:     -4795.278459  Gnorm:      0.000243  CPU:   17.047
  Cycle:     52 Energy:     -4795.278459  Gnorm:      0.000243  CPU:   17.239
  Cycle:     53 Energy:     -4795.278459  Gnorm:      0.000243  CPU:   17.432
  Cycle:     54 Energy:     -4795.278459  Gnorm:      0.000243  CPU:   17.623
  ** Hessian calculated **
  Cycle:     55 Energy:     -4795.278459  Gnorm:      0.000244  CPU:   18.593
  ** Hessian calculated **
  Cycle:     56 Energy:     -4795.278459  Gnorm:      0.000229  CPU:   19.479
  Cycle:     57 Energy:     -4795.278459  Gnorm:      0.000232  CPU:   19.969
  Cycle:     58 Energy:     -4795.278459  Gnorm:      0.000230  CPU:   20.160
  Cycle:     59 Energy:     -4795.278459  Gnorm:      0.000230  CPU:   20.395
  Cycle:     60 Energy:     -4795.278459  Gnorm:      0.000229  CPU:   20.588
  Cycle:     61 Energy:     -4795.278459  Gnorm:      0.000229  CPU:   20.822
  Cycle:     62 Energy:     -4795.278459  Gnorm:      0.000229  CPU:   21.014
  Cycle:     63 Energy:     -4795.278459  Gnorm:      0.000229  CPU:   21.206
  Cycle:     64 Energy:     -4795.278459  Gnorm:      0.000229  CPU:   21.356
  Cycle:     65 Energy:     -4795.278459  Gnorm:      0.000229  CPU:   21.506
  ** Hessian calculated **
  Cycle:     66 Energy:     -4795.278459  Gnorm:      0.000237  CPU:   22.477
  Cycle:     67 Energy:     -4795.278459  Gnorm:      0.000234  CPU:   22.712
  Cycle:     68 Energy:     -4795.278459  Gnorm:      0.000232  CPU:   22.904
  Cycle:     69 Energy:     -4795.278459  Gnorm:      0.000231  CPU:   23.097
  Cycle:     70 Energy:     -4795.278459  Gnorm:      0.000231  CPU:   23.294
  Cycle:     71 Energy:     -4795.278459  Gnorm:      0.000230  CPU:   23.486
  Cycle:     72 Energy:     -4795.278459  Gnorm:      0.000230  CPU:   23.677
  Cycle:     73 Energy:     -4795.278459  Gnorm:      0.000230  CPU:   23.870
  Cycle:     74 Energy:     -4795.278459  Gnorm:      0.000230  CPU:   24.062
  Cycle:     75 Energy:     -4795.278459  Gnorm:      0.000230  CPU:   24.211
  ** Hessian calculated **
  Cycle:     76 Energy:     -4795.278459  Gnorm:      0.000238  CPU:   25.184
  Cycle:     77 Energy:     -4795.278459  Gnorm:      0.000235  CPU:   25.419
  Cycle:     78 Energy:     -4795.278459  Gnorm:      0.000233  CPU:   25.694
  Cycle:     79 Energy:     -4795.278459  Gnorm:      0.000232  CPU:   25.931
  Cycle:     80 Energy:     -4795.278459  Gnorm:      0.000232  CPU:   26.127
  Cycle:     81 Energy:     -4795.278459  Gnorm:      0.000232  CPU:   26.318
  Cycle:     82 Energy:     -4795.278459  Gnorm:      0.000232  CPU:   26.509
  Cycle:     83 Energy:     -4795.278459  Gnorm:      0.000232  CPU:   26.700
  Cycle:     84 Energy:     -4795.278459  Gnorm:      0.000232  CPU:   26.892
  Cycle:     85 Energy:     -4795.278459  Gnorm:      0.000232  CPU:   27.042
  ** Hessian calculated **
  Cycle:     86 Energy:     -4795.278459  Gnorm:      0.000240  CPU:   28.013
  Cycle:     87 Energy:     -4795.278459  Gnorm:      0.000236  CPU:   28.247
  Cycle:     88 Energy:     -4795.278459  Gnorm:      0.000234  CPU:   28.440
  Cycle:     89 Energy:     -4795.278459  Gnorm:      0.000233  CPU:   28.632
  Cycle:     90 Energy:     -4795.278459  Gnorm:      0.000233  CPU:   28.824
  Cycle:     91 Energy:     -4795.278459  Gnorm:      0.000233  CPU:   29.014
  Cycle:     92 Energy:     -4795.278459  Gnorm:      0.000233  CPU:   29.205
  Cycle:     93 Energy:     -4795.278459  Gnorm:      0.000233  CPU:   29.397
  Cycle:     94 Energy:     -4795.278459  Gnorm:      0.000233  CPU:   29.587
  Cycle:     95 Energy:     -4795.278459  Gnorm:      0.000233  CPU:   29.736
  ** Hessian calculated **
  Cycle:     96 Energy:     -4795.278459  Gnorm:      0.000241  CPU:   30.707
  Cycle:     97 Energy:     -4795.278459  Gnorm:      0.000237  CPU:   30.942
  Cycle:     98 Energy:     -4795.278459  Gnorm:      0.000235  CPU:   31.220
  Cycle:     99 Energy:     -4795.278459  Gnorm:      0.000234  CPU:   31.413
  Cycle:    100 Energy:     -4795.278459  Gnorm:      0.000234  CPU:   31.604
  Cycle:    101 Energy:     -4795.278459  Gnorm:      0.000234  CPU:   31.797
  Cycle:    102 Energy:     -4795.278459  Gnorm:      0.000234  CPU:   31.989
  Cycle:    103 Energy:     -4795.278459  Gnorm:      0.000233  CPU:   32.181
  Cycle:    104 Energy:     -4795.278459  Gnorm:      0.000233  CPU:   32.374
  Cycle:    105 Energy:     -4795.278459  Gnorm:      0.000233  CPU:   32.524
  ** Hessian calculated **
  Cycle:    106 Energy:     -4795.278459  Gnorm:      0.000242  CPU:   33.496
  Cycle:    107 Energy:     -4795.278459  Gnorm:      0.000238  CPU:   33.731
  Cycle:    108 Energy:     -4795.278459  Gnorm:      0.000236  CPU:   33.966
  Cycle:    109 Energy:     -4795.278459  Gnorm:      0.000235  CPU:   34.158
  Cycle:    110 Energy:     -4795.278459  Gnorm:      0.000234  CPU:   34.350
  Cycle:    111 Energy:     -4795.278459  Gnorm:      0.000234  CPU:   34.542
  Cycle:    112 Energy:     -4795.278459  Gnorm:      0.000234  CPU:   34.734
  Cycle:    113 Energy:     -4795.278459  Gnorm:      0.000234  CPU:   34.926
  Cycle:    114 Energy:     -4795.278459  Gnorm:      0.000234  CPU:   35.118
  Cycle:    115 Energy:     -4795.278459  Gnorm:      0.000234  CPU:   35.267
  ** Hessian calculated **
  Cycle:    116 Energy:     -4795.278459  Gnorm:      0.000242  CPU:   36.246
  Cycle:    117 Energy:     -4795.278459  Gnorm:      0.000238  CPU:   36.481
  Cycle:    118 Energy:     -4795.278459  Gnorm:      0.000236  CPU:   36.716
  Cycle:    119 Energy:     -4795.278459  Gnorm:      0.000235  CPU:   36.951
  Cycle:    120 Energy:     -4795.278459  Gnorm:      0.000235  CPU:   37.143
  Cycle:    121 Energy:     -4795.278459  Gnorm:      0.000235  CPU:   37.338
  Cycle:    122 Energy:     -4795.278459  Gnorm:      0.000235  CPU:   37.532
  Cycle:    123 Energy:     -4795.278459  Gnorm:      0.000234  CPU:   37.724
  Cycle:    124 Energy:     -4795.278459  Gnorm:      0.000234  CPU:   37.916
  Cycle:    125 Energy:     -4795.278459  Gnorm:      0.000234  CPU:   38.065
  ** Hessian calculated **
  Cycle:    126 Energy:     -4795.278459  Gnorm:      0.000243  CPU:   39.056
  Cycle:    127 Energy:     -4795.278459  Gnorm:      0.000239  CPU:   39.288
  Cycle:    128 Energy:     -4795.278459  Gnorm:      0.000237  CPU:   39.521
  Cycle:    129 Energy:     -4795.278459  Gnorm:      0.000236  CPU:   39.711
  Cycle:    130 Energy:     -4795.278459  Gnorm:      0.000235  CPU:   39.900
  Cycle:    131 Energy:     -4795.278459  Gnorm:      0.000235  CPU:   40.090
  Cycle:    132 Energy:     -4795.278459  Gnorm:      0.000235  CPU:   40.279
  Cycle:    133 Energy:     -4795.278459  Gnorm:      0.000235  CPU:   40.469
  Cycle:    134 Energy:     -4795.278459  Gnorm:      0.000235  CPU:   40.658
  Cycle:    135 Energy:     -4795.278459  Gnorm:      0.000235  CPU:   40.806
  ** Hessian calculated **
  Cycle:    136 Energy:     -4795.278459  Gnorm:      0.000243  CPU:   41.767
  Cycle:    137 Energy:     -4795.278459  Gnorm:      0.000239  CPU:   42.002
  Cycle:    138 Energy:     -4795.278459  Gnorm:      0.000237  CPU:   42.277
  Cycle:    139 Energy:     -4795.278459  Gnorm:      0.000236  CPU:   42.466
  Cycle:    140 Energy:     -4795.278459  Gnorm:      0.000235  CPU:   42.656
  Cycle:    141 Energy:     -4795.278459  Gnorm:      0.000235  CPU:   42.845
  Cycle:    142 Energy:     -4795.278459  Gnorm:      0.000235  CPU:   43.035
  Cycle:    143 Energy:     -4795.278459  Gnorm:      0.000235  CPU:   43.224
  Cycle:    144 Energy:     -4795.278459  Gnorm:      0.000235  CPU:   43.414
  Cycle:    145 Energy:     -4795.278459  Gnorm:      0.000235  CPU:   43.561
  ** Hessian calculated **
  Cycle:    146 Energy:     -4795.278459  Gnorm:      0.000243  CPU:   44.525
  Cycle:    147 Energy:     -4795.278459  Gnorm:      0.000239  CPU:   44.760
  Cycle:    148 Energy:     -4795.278459  Gnorm:      0.000237  CPU:   44.951
  Cycle:    149 Energy:     -4795.278459  Gnorm:      0.000236  CPU:   45.142
  Cycle:    150 Energy:     -4795.278459  Gnorm:      0.000235  CPU:   45.334
  Cycle:    151 Energy:     -4795.278459  Gnorm:      0.000235  CPU:   45.526
  Cycle:    152 Energy:     -4795.278459  Gnorm:      0.000235  CPU:   45.717
  Cycle:    153 Energy:     -4795.278459  Gnorm:      0.000235  CPU:   45.910
  Cycle:    154 Energy:     -4795.278459  Gnorm:      0.000235  CPU:   46.102
  Cycle:    155 Energy:     -4795.278459  Gnorm:      0.000235  CPU:   46.252
  ** Hessian calculated **
  Cycle:    156 Energy:     -4795.278459  Gnorm:      0.000243  CPU:   47.223
  Cycle:    157 Energy:     -4795.278459  Gnorm:      0.000239  CPU:   47.458
  Cycle:    158 Energy:     -4795.278459  Gnorm:      0.000237  CPU:   47.693
  Cycle:    159 Energy:     -4795.278459  Gnorm:      0.000236  CPU:   47.927
  Cycle:    160 Energy:     -4795.278459  Gnorm:      0.000236  CPU:   48.120
  Cycle:    161 Energy:     -4795.278459  Gnorm:      0.000235  CPU:   48.311
  Cycle:    162 Energy:     -4795.278459  Gnorm:      0.000235  CPU:   48.503
  Cycle:    163 Energy:     -4795.278459  Gnorm:      0.000235  CPU:   48.695
  Cycle:    164 Energy:     -4795.278459  Gnorm:      0.000235  CPU:   48.888
  Cycle:    165 Energy:     -4795.278459  Gnorm:      0.000235  CPU:   49.037
  ** Hessian calculated **
  Cycle:    166 Energy:     -4795.278459  Gnorm:      0.000243  CPU:   50.009
  Cycle:    167 Energy:     -4795.278459  Gnorm:      0.000239  CPU:   50.244
  Cycle:    168 Energy:     -4795.278459  Gnorm:      0.000237  CPU:   50.520
  Cycle:    169 Energy:     -4795.278459  Gnorm:      0.000236  CPU:   50.712
  Cycle:    170 Energy:     -4795.278459  Gnorm:      0.000236  CPU:   50.905
  Cycle:    171 Energy:     -4795.278459  Gnorm:      0.000235  CPU:   51.183
  Cycle:    172 Energy:     -4795.278459  Gnorm:      0.000235  CPU:   51.375
  Cycle:    173 Energy:     -4795.278459  Gnorm:      0.000235  CPU:   51.567
  Cycle:    174 Energy:     -4795.278459  Gnorm:      0.000235  CPU:   51.759
  Cycle:    175 Energy:     -4795.278459  Gnorm:      0.000235  CPU:   51.909
  ** Hessian calculated **
  Cycle:    176 Energy:     -4795.278459  Gnorm:      0.000243  CPU:   52.881
  Cycle:    177 Energy:     -4795.278459  Gnorm:      0.000239  CPU:   53.116
  Cycle:    178 Energy:     -4795.278459  Gnorm:      0.000237  CPU:   53.393
  Cycle:    179 Energy:     -4795.278459  Gnorm:      0.000236  CPU:   53.628
  Cycle:    180 Energy:     -4795.278459  Gnorm:      0.000236  CPU:   53.863
  Cycle:    181 Energy:     -4795.278459  Gnorm:      0.000235  CPU:   54.055
  Cycle:    182 Energy:     -4795.278459  Gnorm:      0.000235  CPU:   54.247
  Cycle:    183 Energy:     -4795.278459  Gnorm:      0.000235  CPU:   54.439
  Cycle:    184 Energy:     -4795.278459  Gnorm:      0.000235  CPU:   54.631
  Cycle:    185 Energy:     -4795.278459  Gnorm:      0.000235  CPU:   54.780
  ** Hessian calculated **
  Cycle:    186 Energy:     -4795.278459  Gnorm:      0.000243  CPU:   55.751
  Cycle:    187 Energy:     -4795.278459  Gnorm:      0.000239  CPU:   55.985
  Cycle:    188 Energy:     -4795.278459  Gnorm:      0.000237  CPU:   56.262
  Cycle:    189 Energy:     -4795.278459  Gnorm:      0.000236  CPU:   56.454
  Cycle:    190 Energy:     -4795.278459  Gnorm:      0.000236  CPU:   56.645
  Cycle:    191 Energy:     -4795.278459  Gnorm:      0.000235  CPU:   56.837
  Cycle:    192 Energy:     -4795.278459  Gnorm:      0.000235  CPU:   57.030
  Cycle:    193 Energy:     -4795.278459  Gnorm:      0.000235  CPU:   57.220
  Cycle:    194 Energy:     -4795.278459  Gnorm:      0.000235  CPU:   57.413
  Cycle:    195 Energy:     -4795.278459  Gnorm:      0.000235  CPU:   57.563
  ** Hessian calculated **
  Cycle:    196 Energy:     -4795.278459  Gnorm:      0.000243  CPU:   58.535
  Cycle:    197 Energy:     -4795.278459  Gnorm:      0.000239  CPU:   58.769
  Cycle:    198 Energy:     -4795.278459  Gnorm:      0.000237  CPU:   59.046
  Cycle:    199 Energy:     -4795.278459  Gnorm:      0.000236  CPU:   59.238
  Cycle:    200 Energy:     -4795.278459  Gnorm:      0.000236  CPU:   59.471
  Cycle:    201 Energy:     -4795.278459  Gnorm:      0.000236  CPU:   59.663
  Cycle:    202 Energy:     -4795.278459  Gnorm:      0.000235  CPU:   59.855
  Cycle:    203 Energy:     -4795.278459  Gnorm:      0.000235  CPU:   60.047
  Cycle:    204 Energy:     -4795.278459  Gnorm:      0.000235  CPU:   60.239
  Cycle:    205 Energy:     -4795.278459  Gnorm:      0.000235  CPU:   60.389
  ** Hessian calculated **
  Cycle:    206 Energy:     -4795.278459  Gnorm:      0.000243  CPU:   61.361
  Cycle:    207 Energy:     -4795.278459  Gnorm:      0.000239  CPU:   61.595
  Cycle:    208 Energy:     -4795.278459  Gnorm:      0.000237  CPU:   61.829
  Cycle:    209 Energy:     -4795.278459  Gnorm:      0.000236  CPU:   62.105
  Cycle:    210 Energy:     -4795.278459  Gnorm:      0.000236  CPU:   62.298
  Cycle:    211 Energy:     -4795.278459  Gnorm:      0.000236  CPU:   62.490
  Cycle:    212 Energy:     -4795.278459  Gnorm:      0.000235  CPU:   62.682
  Cycle:    213 Energy:     -4795.278459  Gnorm:      0.000235  CPU:   62.875
  Cycle:    214 Energy:     -4795.278459  Gnorm:      0.000235  CPU:   63.067
  Cycle:    215 Energy:     -4795.278459  Gnorm:      0.000235  CPU:   63.217
  ** Hessian calculated **
  Cycle:    216 Energy:     -4795.278459  Gnorm:      0.000243  CPU:   64.190
  Cycle:    217 Energy:     -4795.278459  Gnorm:      0.000239  CPU:   64.425
  Cycle:    218 Energy:     -4795.278459  Gnorm:      0.000237  CPU:   64.702
  Cycle:    219 Energy:     -4795.278459  Gnorm:      0.000236  CPU:   64.936
  Cycle:    220 Energy:     -4795.278459  Gnorm:      0.000236  CPU:   65.129
  Cycle:    221 Energy:     -4795.278459  Gnorm:      0.000236  CPU:   65.322
  Cycle:    222 Energy:     -4795.278459  Gnorm:      0.000235  CPU:   65.514
  Cycle:    223 Energy:     -4795.278459  Gnorm:      0.000235  CPU:   65.705
  Cycle:    224 Energy:     -4795.278459  Gnorm:      0.000235  CPU:   65.897
  Cycle:    225 Energy:     -4795.278459  Gnorm:      0.000235  CPU:   66.047
  ** Hessian calculated **
  Cycle:    226 Energy:     -4795.278459  Gnorm:      0.000243  CPU:   67.020
  Cycle:    227 Energy:     -4795.278459  Gnorm:      0.000239  CPU:   67.256
  Cycle:    228 Energy:     -4795.278459  Gnorm:      0.000237  CPU:   67.447
  Cycle:    229 Energy:     -4795.278459  Gnorm:      0.000236  CPU:   67.640
  Cycle:    230 Energy:     -4795.278459  Gnorm:      0.000236  CPU:   67.832
  Cycle:    231 Energy:     -4795.278459  Gnorm:      0.000236  CPU:   68.023
  Cycle:    232 Energy:     -4795.278459  Gnorm:      0.000235  CPU:   68.214
  Cycle:    233 Energy:     -4795.278459  Gnorm:      0.000235  CPU:   68.407
  Cycle:    234 Energy:     -4795.278459  Gnorm:      0.000235  CPU:   68.598
  Cycle:    235 Energy:     -4795.278459  Gnorm:      0.000235  CPU:   68.747
  ** Hessian calculated **
  Cycle:    236 Energy:     -4795.278459  Gnorm:      0.000243  CPU:   69.709
  Cycle:    237 Energy:     -4795.278459  Gnorm:      0.000239  CPU:   69.939
  Cycle:    238 Energy:     -4795.278459  Gnorm:      0.000237  CPU:   70.170
  Cycle:    239 Energy:     -4795.278459  Gnorm:      0.000236  CPU:   70.403
  Cycle:    240 Energy:     -4795.278459  Gnorm:      0.000236  CPU:   70.592
  Cycle:    241 Energy:     -4795.278459  Gnorm:      0.000236  CPU:   70.781
  Cycle:    242 Energy:     -4795.278459  Gnorm:      0.000235  CPU:   70.970
  Cycle:    243 Energy:     -4795.278459  Gnorm:      0.000235  CPU:   71.159
  Cycle:    244 Energy:     -4795.278459  Gnorm:      0.000235  CPU:   71.350
  Cycle:    245 Energy:     -4795.278459  Gnorm:      0.000235  CPU:   71.499
  ** Hessian calculated **
  Cycle:    246 Energy:     -4795.278459  Gnorm:      0.000244  CPU:   72.462
  Cycle:    247 Energy:     -4795.278459  Gnorm:      0.000239  CPU:   72.693
  Cycle:    248 Energy:     -4795.278459  Gnorm:      0.000237  CPU:   72.924
  Cycle:    249 Energy:     -4795.278459  Gnorm:      0.000236  CPU:   73.113
  Cycle:    250 Energy:     -4795.278459  Gnorm:      0.000236  CPU:   73.302
  Cycle:    251 Energy:     -4795.278459  Gnorm:      0.000236  CPU:   73.491
  Cycle:    252 Energy:     -4795.278459  Gnorm:      0.000235  CPU:   73.680
  Cycle:    253 Energy:     -4795.278459  Gnorm:      0.000235  CPU:   73.869
  Cycle:    254 Energy:     -4795.278459  Gnorm:      0.000235  CPU:   74.058
  Cycle:    255 Energy:     -4795.278459  Gnorm:      0.000235  CPU:   74.205
  ** Hessian calculated **
  Cycle:    256 Energy:     -4795.278459  Gnorm:      0.000244  CPU:   75.162
  Cycle:    257 Energy:     -4795.278459  Gnorm:      0.000239  CPU:   75.393
  Cycle:    258 Energy:     -4795.278459  Gnorm:      0.000237  CPU:   75.665
  Cycle:    259 Energy:     -4795.278459  Gnorm:      0.000236  CPU:   75.854
  Cycle:    260 Energy:     -4795.278459  Gnorm:      0.000236  CPU:   76.043
  Cycle:    261 Energy:     -4795.278459  Gnorm:      0.000236  CPU:   76.233
  Cycle:    262 Energy:     -4795.278459  Gnorm:      0.000236  CPU:   76.422
  Cycle:    263 Energy:     -4795.278459  Gnorm:      0.000235  CPU:   76.611
  Cycle:    264 Energy:     -4795.278459  Gnorm:      0.000235  CPU:   76.800
  Cycle:    265 Energy:     -4795.278459  Gnorm:      0.000235  CPU:   76.948
  ** Hessian calculated **
  Cycle:    266 Energy:     -4795.278459  Gnorm:      0.000244  CPU:   77.918
  Cycle:    267 Energy:     -4795.278459  Gnorm:      0.000239  CPU:   78.153
  Cycle:    268 Energy:     -4795.278459  Gnorm:      0.000237  CPU:   78.345
  Cycle:    269 Energy:     -4795.278459  Gnorm:      0.000236  CPU:   78.538
  Cycle:    270 Energy:     -4795.278459  Gnorm:      0.000236  CPU:   78.730
  Cycle:    271 Energy:     -4795.278459  Gnorm:      0.000236  CPU:   78.923
  Cycle:    272 Energy:     -4795.278459  Gnorm:      0.000236  CPU:   79.115
  Cycle:    273 Energy:     -4795.278459  Gnorm:      0.000235  CPU:   79.306
  Cycle:    274 Energy:     -4795.278459  Gnorm:      0.000235  CPU:   79.498
  Cycle:    275 Energy:     -4795.278459  Gnorm:      0.000235  CPU:   79.648
  ** Hessian calculated **
  Cycle:    276 Energy:     -4795.278459  Gnorm:      0.000244  CPU:   80.618
  Cycle:    277 Energy:     -4795.278459  Gnorm:      0.000239  CPU:   80.850
  Cycle:    278 Energy:     -4795.278459  Gnorm:      0.000237  CPU:   81.042
  Cycle:    279 Energy:     -4795.278459  Gnorm:      0.000236  CPU:   81.234
  Cycle:    280 Energy:     -4795.278459  Gnorm:      0.000236  CPU:   81.426
  Cycle:    281 Energy:     -4795.278459  Gnorm:      0.000236  CPU:   81.618
  Cycle:    282 Energy:     -4795.278459  Gnorm:      0.000236  CPU:   81.810
  Cycle:    283 Energy:     -4795.278459  Gnorm:      0.000235  CPU:   82.002
  Cycle:    284 Energy:     -4795.278459  Gnorm:      0.000235  CPU:   82.194
  Cycle:    285 Energy:     -4795.278459  Gnorm:      0.000235  CPU:   82.343
  ** Hessian calculated **
  Cycle:    286 Energy:     -4795.278459  Gnorm:      0.000244  CPU:   83.316
  Cycle:    287 Energy:     -4795.278459  Gnorm:      0.000240  CPU:   83.548
  Cycle:    288 Energy:     -4795.278459  Gnorm:      0.000237  CPU:   83.737
  Cycle:    289 Energy:     -4795.278459  Gnorm:      0.000236  CPU:   83.927
  Cycle:    290 Energy:     -4795.278459  Gnorm:      0.000236  CPU:   84.117
  Cycle:    291 Energy:     -4795.278459  Gnorm:      0.000236  CPU:   84.307
  Cycle:    292 Energy:     -4795.278459  Gnorm:      0.000236  CPU:   84.497
  Cycle:    293 Energy:     -4795.278459  Gnorm:      0.000235  CPU:   84.686
  Cycle:    294 Energy:     -4795.278459  Gnorm:      0.000235  CPU:   84.878
  Cycle:    295 Energy:     -4795.278459  Gnorm:      0.000235  CPU:   85.028
  ** Hessian calculated **
  Cycle:    296 Energy:     -4795.278459  Gnorm:      0.000244  CPU:   86.000
  Cycle:    297 Energy:     -4795.278459  Gnorm:      0.000240  CPU:   86.235
  Cycle:    298 Energy:     -4795.278459  Gnorm:      0.000237  CPU:   86.512
  Cycle:    299 Energy:     -4795.278459  Gnorm:      0.000236  CPU:   86.746
  Cycle:    300 Energy:     -4795.278459  Gnorm:      0.000236  CPU:   86.939
  Cycle:    301 Energy:     -4795.278459  Gnorm:      0.000236  CPU:   87.131
  Cycle:    302 Energy:     -4795.278459  Gnorm:      0.000236  CPU:   87.323
  Cycle:    303 Energy:     -4795.278459  Gnorm:      0.000236  CPU:   87.515
  Cycle:    304 Energy:     -4795.278459  Gnorm:      0.000235  CPU:   87.708
  Cycle:    305 Energy:     -4795.278459  Gnorm:      0.000235  CPU:   87.857
  ** Hessian calculated **
  Cycle:    306 Energy:     -4795.278459  Gnorm:      0.000244  CPU:   88.830
  Cycle:    307 Energy:     -4795.278459  Gnorm:      0.000240  CPU:   89.064
  Cycle:    308 Energy:     -4795.278459  Gnorm:      0.000237  CPU:   89.340
  Cycle:    309 Energy:     -4795.278459  Gnorm:      0.000236  CPU:   89.574
  Cycle:    310 Energy:     -4795.278459  Gnorm:      0.000236  CPU:   89.765
  Cycle:    311 Energy:     -4795.278459  Gnorm:      0.000236  CPU:   90.000
  Cycle:    312 Energy:     -4795.278459  Gnorm:      0.000236  CPU:   90.191
  Cycle:    313 Energy:     -4795.278459  Gnorm:      0.000236  CPU:   90.381
  Cycle:    314 Energy:     -4795.278459  Gnorm:      0.000235  CPU:   90.572
  Cycle:    315 Energy:     -4795.278459  Gnorm:      0.000235  CPU:   90.721
  ** Hessian calculated **
  Cycle:    316 Energy:     -4795.278459  Gnorm:      0.000244  CPU:   91.680
  Cycle:    317 Energy:     -4795.278459  Gnorm:      0.000240  CPU:   91.911
  Cycle:    318 Energy:     -4795.278459  Gnorm:      0.000238  CPU:   92.100
  Cycle:    319 Energy:     -4795.278459  Gnorm:      0.000236  CPU:   92.290
  Cycle:    320 Energy:     -4795.278459  Gnorm:      0.000236  CPU:   92.479
  Cycle:    321 Energy:     -4795.278459  Gnorm:      0.000236  CPU:   92.668
  Cycle:    322 Energy:     -4795.278459  Gnorm:      0.000236  CPU:   92.858
  Cycle:    323 Energy:     -4795.278459  Gnorm:      0.000236  CPU:   93.049
  Cycle:    324 Energy:     -4795.278459  Gnorm:      0.000236  CPU:   93.240
  Cycle:    325 Energy:     -4795.278459  Gnorm:      0.000235  CPU:   93.389
  ** Hessian calculated **
  Cycle:    326 Energy:     -4795.278459  Gnorm:      0.000244  CPU:   94.350
  Cycle:    327 Energy:     -4795.278459  Gnorm:      0.000240  CPU:   94.581
  Cycle:    328 Energy:     -4795.278459  Gnorm:      0.000238  CPU:   94.853
  Cycle:    329 Energy:     -4795.278459  Gnorm:      0.000237  CPU:   95.084
  Cycle:    330 Energy:     -4795.278459  Gnorm:      0.000236  CPU:   95.274
  Cycle:    331 Energy:     -4795.278459  Gnorm:      0.000236  CPU:   95.464
  Cycle:    332 Energy:     -4795.278459  Gnorm:      0.000236  CPU:   95.654
  Cycle:    333 Energy:     -4795.278459  Gnorm:      0.000236  CPU:   95.843
  Cycle:    334 Energy:     -4795.278459  Gnorm:      0.000236  CPU:   96.032
  Cycle:    335 Energy:     -4795.278459  Gnorm:      0.000236  CPU:   96.180
  ** Hessian calculated **
  Cycle:    336 Energy:     -4795.278459  Gnorm:      0.000244  CPU:   97.137
  Cycle:    337 Energy:     -4795.278459  Gnorm:      0.000240  CPU:   97.373
  Cycle:    338 Energy:     -4795.278459  Gnorm:      0.000238  CPU:   97.652
  Cycle:    339 Energy:     -4795.278459  Gnorm:      0.000237  CPU:   97.844
  Cycle:    340 Energy:     -4795.278459  Gnorm:      0.000236  CPU:   98.034
  Cycle:    341 Energy:     -4795.278459  Gnorm:      0.000236  CPU:   98.224
  Cycle:    342 Energy:     -4795.278459  Gnorm:      0.000236  CPU:   98.413
  Cycle:    343 Energy:     -4795.278459  Gnorm:      0.000236  CPU:   98.602
  Cycle:    344 Energy:     -4795.278459  Gnorm:      0.000236  CPU:   98.795
  Cycle:    345 Energy:     -4795.278459  Gnorm:      0.000236  CPU:   98.943
  ** Hessian calculated **
  Cycle:    346 Energy:     -4795.278459  Gnorm:      0.000244  CPU:   99.901
  Cycle:    347 Energy:     -4795.278459  Gnorm:      0.000240  CPU:  100.133
  Cycle:    348 Energy:     -4795.278459  Gnorm:      0.000238  CPU:  100.363
  Cycle:    349 Energy:     -4795.278459  Gnorm:      0.000237  CPU:  100.594
  Cycle:    350 Energy:     -4795.278459  Gnorm:      0.000236  CPU:  100.782
  Cycle:    351 Energy:     -4795.278459  Gnorm:      0.000236  CPU:  100.971
  Cycle:    352 Energy:     -4795.278459  Gnorm:      0.000236  CPU:  101.160
  Cycle:    353 Energy:     -4795.278459  Gnorm:      0.000236  CPU:  101.349
  Cycle:    354 Energy:     -4795.278459  Gnorm:      0.000236  CPU:  101.537
  Cycle:    355 Energy:     -4795.278459  Gnorm:      0.000236  CPU:  101.684
  ** Hessian calculated **
  Cycle:    356 Energy:     -4795.278459  Gnorm:      0.000244  CPU:  102.641
  Cycle:    357 Energy:     -4795.278459  Gnorm:      0.000240  CPU:  102.876
  Cycle:    358 Energy:     -4795.278459  Gnorm:      0.000238  CPU:  103.067
  Cycle:    359 Energy:     -4795.278459  Gnorm:      0.000237  CPU:  103.263
  Cycle:    360 Energy:     -4795.278459  Gnorm:      0.000236  CPU:  103.458
  Cycle:    361 Energy:     -4795.278459  Gnorm:      0.000236  CPU:  103.647
  Cycle:    362 Energy:     -4795.278459  Gnorm:      0.000236  CPU:  103.836
  Cycle:    363 Energy:     -4795.278459  Gnorm:      0.000236  CPU:  104.025
  Cycle:    364 Energy:     -4795.278459  Gnorm:      0.000236  CPU:  104.215
  Cycle:    365 Energy:     -4795.278459  Gnorm:      0.000236  CPU:  104.362
  ** Hessian calculated **
  Cycle:    366 Energy:     -4795.278459  Gnorm:      0.000244  CPU:  105.327
  Cycle:    367 Energy:     -4795.278459  Gnorm:      0.000240  CPU:  105.558
  Cycle:    368 Energy:     -4795.278459  Gnorm:      0.000238  CPU:  105.747
  Cycle:    369 Energy:     -4795.278459  Gnorm:      0.000237  CPU:  105.936
  Cycle:    370 Energy:     -4795.278459  Gnorm:      0.000236  CPU:  106.125
  Cycle:    371 Energy:     -4795.278459  Gnorm:      0.000236  CPU:  106.317
  Cycle:    372 Energy:     -4795.278459  Gnorm:      0.000236  CPU:  106.507
  Cycle:    373 Energy:     -4795.278459  Gnorm:      0.000236  CPU:  106.696
  Cycle:    374 Energy:     -4795.278459  Gnorm:      0.000236  CPU:  106.885
  Cycle:    375 Energy:     -4795.278460  Gnorm:      0.000211  CPU:  107.200
  ** Hessian calculated **
  Cycle:    376 Energy:     -4795.278460  Gnorm:      0.000211  CPU:  108.121
  ** Hessian calculated **
  Cycle:    377 Energy:     -4795.278460  Gnorm:      0.000214  CPU:  109.044
  Cycle:    378 Energy:     -4795.278460  Gnorm:      0.000213  CPU:  109.233
  Cycle:    379 Energy:     -4795.278460  Gnorm:      0.000212  CPU:  109.423
  Cycle:    380 Energy:     -4795.278460  Gnorm:      0.000212  CPU:  109.612
  Cycle:    381 Energy:     -4795.278460  Gnorm:      0.000211  CPU:  109.801
  Cycle:    382 Energy:     -4795.278460  Gnorm:      0.000211  CPU:  109.990
  Cycle:    383 Energy:     -4795.278460  Gnorm:      0.000211  CPU:  110.179
  Cycle:    384 Energy:     -4795.278460  Gnorm:      0.000211  CPU:  110.326
  Cycle:    385 Energy:     -4795.278460  Gnorm:      0.000211  CPU:  110.474
  Cycle:    386 Energy:     -4795.278460  Gnorm:      0.000211  CPU:  110.621
  ** Hessian calculated **
  Cycle:    387 Energy:     -4795.278460  Gnorm:      0.000211  CPU:  111.662
  ** Hessian calculated **


  **** Optimisation achieved ****


  Final energy =   -4795.27845987 eV      
  Final Gnorm  =       0.00021117

  Components of energy : 

--------------------------------------------------------------------------------
  Interatomic potentials     =         972.01403392 eV    
  Monopole - monopole (real) =       -3039.51075990 eV    
  Monopole - monopole (recip)=       -2727.78173389 eV    
  Monopole - monopole (total)=       -5767.29249379 eV    
--------------------------------------------------------------------------------
  Total lattice energy       =       -4795.27845987 eV    
--------------------------------------------------------------------------------
  Total lattice energy       =         -462671.0688 kJ/(mole unit cells)
--------------------------------------------------------------------------------

  Final fractional coordinates of atoms :

--------------------------------------------------------------------------------
   No.  Atomic        x           y          z          Radius
        Label       (Frac)      (Frac)     (Frac)       (Angs) 
--------------------------------------------------------------------------------
     1  Fe    c     0.625000    0.625000    0.208333    0.000000
     2  Fe    c     0.632923    0.623263    0.545721    0.000000
     3  Fe    c     0.129456    0.869149    0.461263    0.000000
     4  Fe    c     0.383703    0.118423    0.293217    0.000000
     5  Fe    c     0.009345    0.971533    0.330802    0.000000
     6  Fe    c     0.989475    0.997936    0.669046    0.000000
     7  Fe    c     0.980674    0.988195    0.995061    0.000000
     8  Fe    c     0.764647    0.252348    0.235415    0.000000
     9  Fe    c     0.774710    0.250887    0.581404    0.000000
    10  Fe    c     0.762444    0.242428    0.913587    0.000000
    11  Fe    c     0.513389    0.998038    0.158665    0.000000
    12  Fe    c     0.459028    0.957279    0.522681    0.000000
    13  Fe    c     0.517370    0.027885    0.833828    0.000000
    14  Fe    c     0.733816    0.768269    0.077637    0.000000
    15  Fe    c     0.760734    0.762235    0.419197    0.000000
    16  Fe    c     0.732492    0.776608    0.752373    0.000000
    17  Fe    c     0.475265    0.518022    0.003520    0.000000
    18  Fe    c     0.490886    0.492156    0.334780    0.000000
    19  Fe    c     0.486260    0.513803    0.675261    0.000000
    20  Fe    c     0.259490    0.262424    0.084860    0.000000
    21  Fe    c     0.283219    0.241476    0.423318    0.000000
    22  Fe    c     0.268530    0.272998    0.763665    0.000000
    23  Fe    c     0.002630    0.475816    0.172329    0.000000
    24  Fe    c     0.005292    0.493731    0.517052    0.000000
    25  Fe    c     0.014292    0.495923    0.842850    0.000000
    26  Fe    c     0.250823    0.741747    0.254780    0.000000
    27  Fe    c     0.254205    0.750096    0.615050    0.000000
    28  Fe    c     0.226472    0.744662    0.926422    0.000000
    29  Fe    c     0.867358    0.600681    0.298049    0.000000
    30  Fe    c     0.868977    0.618126    0.633808    0.000000
    31  Fe    c     0.850748    0.608204    0.960356    0.000000
    32  Fe    c     0.136067    0.105052    0.205737    0.000000
    33  Fe    c     0.136794    0.124791    0.547884    0.000000
    34  Fe    c     0.137445    0.113706    0.877767    0.000000
    35  Fe    c     0.631278    0.383627    0.121195    0.000000
    36  Fe    c     0.657018    0.383848    0.454750    0.000000
    37  Fe    c     0.646198    0.402464    0.794897    0.000000
    38  Fe    c     0.346320    0.892688    0.043164    0.000000
    39  Fe    c     0.386670    0.870281    0.378882    0.000000
    40  Fe    c     0.358851    0.914560    0.720518    0.000000
    41  Fe    c     0.890216    0.857292    0.204800    0.000000
    42  Fe    c     0.881058    0.880968    0.542335    0.000000
    43  Fe    c     0.875989    0.865749    0.871824    0.000000
    44  Fe    c     0.616435    0.139300    0.033859    0.000000
    45  Fe    c     0.657446    0.141971    0.370955    0.000000
    46  Fe    c     0.626152    0.157407    0.705504    0.000000
    47  Fe    c     0.354456    0.636286    0.129383    0.000000
    48  Fe    c     0.381072    0.612521    0.462033    0.000000
    49  Fe    c     0.383416    0.649635    0.809786    0.000000
    50  Fe    c     0.112418    0.349177    0.300364    0.000000
    51  Fe    c     0.139278    0.365786    0.635873    0.000000
    52  Fe    c     0.112669    0.362856    0.966931    0.000000
    53  Fe    c     0.635641    0.872200    0.292281    0.000000
    54  Fe    c     0.623283    0.893296    0.626618    0.000000
    55  Fe    c     0.603131    0.872259    0.953652    0.000000
    56  Fe    c     0.095518    0.627553    0.049712    0.000000
    57  Fe    c     0.115891    0.599267    0.382671    0.000000
    58  Fe    c     0.110537    0.626125    0.720109    0.000000
    59  Fe    c     0.374015    0.371281    0.211628    0.000000
    60  Fe    c     0.396288    0.363488    0.548388    0.000000
    61  Fe    c     0.388918    0.372011    0.885877    0.000000
    62  Fe    c     0.885022    0.117120    0.119585    0.000000
    63  Fe    c     0.901925    0.146192    0.452293    0.000000
    64  Fe    c     0.890364    0.139835    0.788855    0.000000
    65  O2    c     0.385940    0.394809    0.135709    0.000000
    66  O2    c     0.407717    0.387810    0.460843    0.000000
    67  O2    c     0.402897    0.416110    0.799935    0.000000
    68  O2    c     0.345399    0.645728    0.053280    0.000000
    69  O2    c     0.369923    0.634544    0.380517    0.000000
    70  O2    c     0.349673    0.684978    0.688421    0.000000
    71  O2    c     0.116867    0.598830    0.300756    0.000000
    72  O2    c     0.096829    0.602926    0.629913    0.000000
    73  O2    c     0.093382    0.605230    0.970304    0.000000
    74  O2    c     0.143264    0.350376    0.219797    0.000000
    75  O2    c     0.160921    0.357784    0.544633    0.000000
    76  O2    c     0.146550    0.356508    0.883170    0.000000
    77  O2    c     0.901018    0.089718    0.210998    0.000000
    78  O2    c     0.900923    0.113570    0.534207    0.000000
    79  O2    c     0.894360    0.108976    0.870042    0.000000
    80  O2    c     0.863640    0.844768    0.291069    0.000000
    81  O2    c     0.861569    0.866585    0.619897    0.000000
    82  O2    c     0.842972    0.850525    0.957158    0.000000
    83  O2    c     0.589081    0.902398    0.044202    0.000000
    84  O2    c     0.620250    0.882094    0.372931    0.000000
    85  O2    c     0.595065    0.905705    0.701381    0.000000
    86  O2    c     0.647796    0.155062    0.133515    0.000000
    87  O2    c     0.675017    0.157759    0.447397    0.000000
    88  O2    c     0.647989    0.159507    0.785535    0.000000
    89  O2    c     0.391373    0.877497    0.298189    0.000000
    90  O2    c     0.413360    0.885062    0.595253    0.000000
    91  O2    c     0.381903    0.845052    0.967522    0.000000
    92  O2    c     0.865633    0.628061    0.215971    0.000000
    93  O2    c     0.865969    0.650279    0.542871    0.000000
    94  O2    c     0.902877    0.644536    0.880979    0.000000
    95  O2    c     0.106459    0.163068    0.133195    0.000000
    96  O2    c     0.128771    0.107769    0.457344    0.000000
    97  O2    c     0.112020    0.149903    0.793969    0.000000
    98  O2    c     0.577648    0.360591    0.049170    0.000000
    99  O2    c     0.612741    0.365366    0.376262    0.000000
   100  O2    c     0.616883    0.377256    0.707826    0.000000
   101  O2    c     0.875024    0.635299    0.048630    0.000000
   102  O2    c     0.894151    0.644895    0.374167    0.000000
   103  O2    c     0.892363    0.680093    0.706721    0.000000
   104  O2    c     0.383773    0.851203    0.133711    0.000000
   105  O2    c     0.367999    0.854324    0.458928    0.000000
   106  O2    c     0.411889    0.865914    0.791406    0.000000
   107  O2    c     0.601815    0.393405    0.214341    0.000000
   108  O2    c     0.629286    0.384723    0.538474    0.000000
   109  O2    c     0.610691    0.348549    0.873146    0.000000
   110  O2    c     0.147717    0.120545    0.294202    0.000000
   111  O2    c     0.087590    0.148904    0.621913    0.000000
   112  O2    c     0.093632    0.142631    0.959138    0.000000
   113  O2    c     0.890332    0.377505    0.283512    0.000000
   114  O2    c     0.906456    0.410915    0.602569    0.000000
   115  O2    c     0.882179    0.389926    0.949553    0.000000
   116  O2    c     0.633470    0.856386    0.215600    0.000000
   117  O2    c     0.651246    0.862529    0.539721    0.000000
   118  O2    c     0.635131    0.901454    0.878468    0.000000
   119  O2    c     0.394123    0.103780    0.066390    0.000000
   120  O2    c     0.400862    0.104295    0.373760    0.000000
   121  O2    c     0.390337    0.131142    0.721183    0.000000
   122  O2    c     0.129579    0.603282    0.132680    0.000000
   123  O2    c     0.140873    0.628855    0.460826    0.000000
   124  O2    c     0.155424    0.612381    0.791688    0.000000
   125  O2    c     0.111519    0.883437    0.227609    0.000000
   126  O2    c     0.122525    0.891593    0.540070    0.000000
   127  O2    c     0.104496    0.895531    0.892977    0.000000
   128  O2    c     0.365550    0.352387    0.292255    0.000000
   129  O2    c     0.366164    0.410673    0.621142    0.000000
   130  O2    c     0.353612    0.392986    0.961668    0.000000
   131  O2    c     0.611568    0.612699    0.131016    0.000000
   132  O2    c     0.628257    0.619082    0.459150    0.000000
   133  O2    c     0.596162    0.619284    0.774435    0.000000
   134  O2    c     0.846648    0.093101    0.047538    0.000000
   135  O2    c     0.880831    0.091352    0.374175    0.000000
   136  O2    c     0.856438    0.107313    0.711172    0.000000
   137  O2    c     0.827940    0.890489    0.133824    0.000000
   138  O2    c     0.900489    0.884657    0.460855    0.000000
   139  O2    c     0.849345    0.899263    0.795441    0.000000
   140  O2    c     0.630132    0.629654    0.293123    0.000000
   141  O2    c     0.640440    0.641574    0.624745    0.000000
   142  O2    c     0.634366    0.646334    0.978589    0.000000
   143  O2    c     0.138855    0.393539    0.045187    0.000000
   144  O2    c     0.164829    0.377588    0.376280    0.000000
   145  O2    c     0.172178    0.406503    0.708824    0.000000
   146  O2    c     0.371597    0.125971    0.213337    0.000000
   147  O2    c     0.358564    0.145922    0.525462    0.000000
   148  O2    c     0.356459    0.150185    0.860301    0.000000
   149  O2    c     0.622732    0.110725    0.292472    0.000000
   150  O2    c     0.653804    0.119232    0.623419    0.000000
   151  O2    c     0.646659    0.109160    0.961120    0.000000
   152  O2    c     0.839582    0.344143    0.155477    0.000000
   153  O2    c     0.885606    0.372744    0.469600    0.000000
   154  O2    c     0.869434    0.379260    0.802713    0.000000
   155  O2    c     0.381957    0.610512    0.214941    0.000000
   156  O2    c     0.408002    0.607029    0.537057    0.000000
   157  O2    c     0.345648    0.614288    0.882125    0.000000
   158  O2    c     0.123395    0.864048    0.036338    0.000000
   159  O2    c     0.149738    0.851695    0.379472    0.000000
   160  O2    c     0.161938    0.868886    0.683384    0.000000
   161  O2    s     0.385994    0.395202    0.137017    0.000000
   162  O2    s     0.406088    0.389478    0.460481    0.000000
   163  O2    s     0.402173    0.415725    0.799970    0.000000
   164  O2    s     0.345334    0.645706    0.054596    0.000000
   165  O2    s     0.370807    0.635117    0.380975    0.000000
   166  O2    s     0.350499    0.682766    0.687484    0.000000
   167  O2    s     0.116217    0.598647    0.301329    0.000000
   168  O2    s     0.097519    0.605202    0.630389    0.000000
   169  O2    s     0.093383    0.605590    0.970798    0.000000
   170  O2    s     0.145238    0.350275    0.220024    0.000000
   171  O2    s     0.160082    0.357092    0.544586    0.000000
   172  O2    s     0.146122    0.357022    0.883197    0.000000
   173  O2    s     0.901717    0.089968    0.210774    0.000000
   174  O2    s     0.902192    0.112237    0.534315    0.000000
   175  O2    s     0.894263    0.109467    0.869820    0.000000
   176  O2    s     0.861877    0.845410    0.291327    0.000000
   177  O2    s     0.860408    0.867315    0.618989    0.000000
   178  O2    s     0.843294    0.851127    0.957167    0.000000
   179  O2    s     0.590732    0.901751    0.044480    0.000000
   180  O2    s     0.619122    0.880621    0.372493    0.000000
   181  O2    s     0.594823    0.906103    0.699884    0.000000
   182  O2    s     0.645939    0.153716    0.133672    0.000000
   183  O2    s     0.681168    0.163962    0.445099    0.000000
   184  O2    s     0.648265    0.159610    0.785203    0.000000
   185  O2    s     0.392078    0.878687    0.298865    0.000000
   186  O2    s     0.413483    0.880871    0.594776    0.000000
   187  O2    s     0.382603    0.843383    0.967811    0.000000
   188  O2    s     0.864190    0.630672    0.216327    0.000000
   189  O2    s     0.865394    0.650147    0.542801    0.000000
   190  O2    s     0.905876    0.645101    0.880778    0.000000
   191  O2    s     0.105766    0.162820    0.134103    0.000000
   192  O2    s     0.127611    0.108401    0.456943    0.000000
   193  O2    s     0.111244    0.154898    0.793760    0.000000
   194  O2    s     0.577673    0.359574    0.050384    0.000000
   195  O2    s     0.609007    0.365193    0.376055    0.000000
   196  O2    s     0.610491    0.375801    0.707116    0.000000
   197  O2    s     0.876398    0.641890    0.049178    0.000000
   198  O2    s     0.895269    0.646897    0.373858    0.000000
   199  O2    s     0.893505    0.679405    0.705920    0.000000
   200  O2    s     0.389673    0.850201    0.134144    0.000000
   201  O2    s     0.365698    0.852931    0.458701    0.000000
   202  O2    s     0.411958    0.864708    0.790302    0.000000
   203  O2    s     0.601281    0.393912    0.214160    0.000000
   204  O2    s     0.627627    0.385909    0.538491    0.000000
   205  O2    s     0.609959    0.346164    0.873273    0.000000
   206  O2    s     0.148024    0.121745    0.294521    0.000000
   207  O2    s     0.087332    0.149684    0.621272    0.000000
   208  O2    s     0.089727    0.143223    0.959480    0.000000
   209  O2    s     0.892471    0.379585    0.282832    0.000000
   210  O2    s     0.902912    0.409570    0.602402    0.000000
   211  O2    s     0.881390    0.391066    0.948725    0.000000
   212  O2    s     0.634427    0.853042    0.217037    0.000000
   213  O2    s     0.649535    0.862096    0.540346    0.000000
   214  O2    s     0.633397    0.905582    0.879149    0.000000
   215  O2    s     0.390989    0.105107    0.066019    0.000000
   216  O2    s     0.399876    0.102930    0.373270    0.000000
   217  O2    s     0.389979    0.127391    0.722395    0.000000
   218  O2    s     0.129690    0.597688    0.133175    0.000000
   219  O2    s     0.142829    0.630516    0.459634    0.000000
   220  O2    s     0.154922    0.610505    0.790011    0.000000
   221  O2    s     0.112956    0.882322    0.227770    0.000000
   222  O2    s     0.118777    0.896135    0.538423    0.000000
   223  O2    s     0.105790    0.896089    0.893546    0.000000
   224  O2    s     0.366802    0.351437    0.291802    0.000000
   225  O2    s     0.365455    0.411316    0.620411    0.000000
   226  O2    s     0.355699    0.397879    0.961125    0.000000
   227  O2    s     0.611444    0.609658    0.132353    0.000000
   228  O2    s     0.629341    0.618587    0.458925    0.000000
   229  O2    s     0.598831    0.620874    0.774772    0.000000
   230  O2    s     0.847182    0.091754    0.048975    0.000000
   231  O2    s     0.880219    0.088694    0.374034    0.000000
   232  O2    s     0.858639    0.103496    0.710949    0.000000
   233  O2    s     0.828545    0.890702    0.134617    0.000000
   234  O2    s     0.902056    0.882376    0.461121    0.000000
   235  O2    s     0.844819    0.896565    0.795629    0.000000
   236  O2    s     0.630970    0.629342    0.293123    0.000000
   237  O2    s     0.643715    0.641696    0.623764    0.000000
   238  O2    s     0.633548    0.644040    0.978682    0.000000
   239  O2    s     0.143542    0.391388    0.045182    0.000000
   240  O2    s     0.165880    0.379273    0.375806    0.000000
   241  O2    s     0.172334    0.407174    0.707846    0.000000
   242  O2    s     0.368691    0.127636    0.214313    0.000000
   243  O2    s     0.357959    0.142251    0.526550    0.000000
   244  O2    s     0.357069    0.148818    0.860136    0.000000
   245  O2    s     0.620340    0.108217    0.293751    0.000000
   246  O2    s     0.658492    0.119142    0.623028    0.000000
   247  O2    s     0.649081    0.110751    0.962461    0.000000
   248  O2    s     0.841887    0.347431    0.155855    0.000000
   249  O2    s     0.884443    0.371648    0.470679    0.000000
   250  O2    s     0.867749    0.379988    0.803835    0.000000
   251  O2    s     0.380714    0.611386    0.215143    0.000000
   252  O2    s     0.413881    0.603823    0.534717    0.000000
   253  O2    s     0.343049    0.616917    0.880671    0.000000
   254  O2    s     0.125571    0.864239    0.035311    0.000000
   255  O2    s     0.150717    0.852296    0.379941    0.000000
   256  O2    s     0.161469    0.871715    0.683154    0.000000
--------------------------------------------------------------------------------

  Final Cartesian lattice vectors (Angstroms) :

        8.417550   -0.025955    0.057524
       -0.026136    8.442318    0.064417
        0.196843    0.204429   24.649622


  Final cell parameters and derivatives :

--------------------------------------------------------------------------------
       a            8.417787 Angstrom     dE/de1(xx)    -0.002035 eV/strain
       b            8.442605 Angstrom     dE/de2(yy)    -0.004231 eV/strain
       c           24.651255 Angstrom     dE/de3(zz)    -0.025314 eV/strain
       alpha       89.089115 Degrees      dE/de4(yz)    -0.001731 eV/strain
       beta        89.152423 Degrees      dE/de5(xz)    -0.000446 eV/strain
       gamma       90.351039 Degrees      dE/de6(xy)     0.007184 eV/strain
--------------------------------------------------------------------------------

  Primitive cell volume =          1751.468015 Angs**3

  Density of cell =      4.845166 g/cm**3

  Non-primitive cell volume =          1751.468015 Angs**3


  Final internal derivatives :

--------------------------------------------------------------------------------
   No.  Atomic          a             b             c           Radius
        Label          (eV)          (eV)          (eV)        (eV/Angs)
--------------------------------------------------------------------------------
      1 Fe    c       0.000000      0.000000      0.000000      0.000000
      2 Fe    c      -0.005067      0.000960      0.001344      0.000000
      3 Fe    c       0.001656      0.002434     -0.016661      0.000000
      4 Fe    c       0.000210      0.000129     -0.000276      0.000000
      5 Fe    c       0.000380     -0.000313      0.002466      0.000000
      6 Fe    c       0.006253     -0.006106     -0.002771      0.000000
      7 Fe    c      -0.000137     -0.000003      0.000907      0.000000
      8 Fe    c       0.000095     -0.000231     -0.001085      0.000000
      9 Fe    c      -0.001577     -0.001420      0.005675      0.000000
     10 Fe    c      -0.000452     -0.000569     -0.000335      0.000000
     11 Fe    c      -0.001842     -0.001041     -0.006623      0.000000
     12 Fe    c       0.002933     -0.001874     -0.000750      0.000000
     13 Fe    c       0.000851      0.000133      0.000558      0.000000
     14 Fe    c       0.000004      0.000230      0.001453      0.000000
     15 Fe    c      -0.000817     -0.001184      0.003960      0.000000
     16 Fe    c       0.000521      0.001982     -0.007198      0.000000
     17 Fe    c      -0.000142     -0.000531      0.001048      0.000000
     18 Fe    c      -0.000308      0.000025      0.002755      0.000000
     19 Fe    c      -0.002852     -0.000681     -0.011342      0.000000
     20 Fe    c      -0.000140      0.000586      0.001040      0.000000
     21 Fe    c      -0.000053      0.000656      0.001497      0.000000
     22 Fe    c      -0.000606     -0.001534     -0.006588      0.000000
     23 Fe    c       0.000545      0.000264     -0.000861      0.000000
     24 Fe    c      -0.000451     -0.002546      0.000455      0.000000
     25 Fe    c       0.000270     -0.001629      0.000049      0.000000
     26 Fe    c       0.000184      0.000577     -0.000704      0.000000
     27 Fe    c      -0.007282      0.008098      0.097728      0.000000
     28 Fe    c       0.000339     -0.000830     -0.001109      0.000000
     29 Fe    c      -0.000192      0.000862      0.000471      0.000000
     30 Fe    c      -0.002070      0.002839      0.002761      0.000000
     31 Fe    c       0.000032      0.000202     -0.002465      0.000000
     32 Fe    c       0.000111      0.000604     -0.003853      0.000000
     33 Fe    c      -0.000462      0.006364      0.004769      0.000000
     34 Fe    c      -0.000475      0.000297     -0.001807      0.000000
     35 Fe    c      -0.000302     -0.000479     -0.003688      0.000000
     36 Fe    c      -0.000343      0.004564      0.000972      0.000000
     37 Fe    c       0.000710     -0.002335     -0.002975      0.000000
     38 Fe    c       0.000622      0.000641      0.002668      0.000000
     39 Fe    c      -0.000352     -0.000173      0.004850      0.000000
     40 Fe    c      -0.003501      0.002890     -0.000988      0.000000
     41 Fe    c       0.000969      0.000421     -0.003623      0.000000
     42 Fe    c      -0.003783      0.000963      0.009261      0.000000
     43 Fe    c      -0.000979      0.000181     -0.000900      0.000000
     44 Fe    c       0.000548      0.000485     -0.005974      0.000000
     45 Fe    c       0.000628      0.001108     -0.009598      0.000000
     46 Fe    c       0.000842     -0.000685     -0.001482      0.000000
     47 Fe    c      -0.000182      0.000145     -0.002081      0.000000
     48 Fe    c       0.003709      0.000154      0.011225      0.000000
     49 Fe    c       0.002577     -0.001144      0.010989      0.000000
     50 Fe    c       0.000630      0.000140      0.001426      0.000000
     51 Fe    c       0.003182     -0.004269      0.000902      0.000000
     52 Fe    c      -0.000081     -0.000145      0.000529      0.000000
     53 Fe    c      -0.000189      0.000116      0.000357      0.000000
     54 Fe    c       0.002133      0.001476     -0.005348      0.000000
     55 Fe    c       0.000179      0.000817     -0.006086      0.000000
     56 Fe    c      -0.000344     -0.000698     -0.000035      0.000000
     57 Fe    c       0.000219     -0.000029      0.000442      0.000000
     58 Fe    c       0.003987      0.016496     -0.025412      0.000000
     59 Fe    c      -0.000037     -0.000289     -0.002218      0.000000
     60 Fe    c      -0.001576      0.007731      0.010280      0.000000
     61 Fe    c       0.000986      0.000339      0.002429      0.000000
     62 Fe    c       0.000070      0.000133     -0.003498      0.000000
     63 Fe    c       0.003896      0.000222      0.002651      0.000000
     64 Fe    c       0.000595     -0.000094     -0.004582      0.000000
     65 O2    c      -0.000625     -0.000107      0.004010      0.000000
     66 O2    c      -0.001357     -0.000350      0.003020      0.000000
     67 O2    c      -0.000166     -0.001059     -0.000025      0.000000
     68 O2    c       0.000463     -0.000803      0.003574      0.000000
     69 O2    c       0.000990     -0.000598      0.003030      0.000000
     70 O2    c      -0.001365     -0.005366      0.008701      0.000000
     71 O2    c       0.000294      0.000327      0.003168      0.000000
     72 O2    c      -0.007232     -0.004441      0.001120      0.000000
     73 O2    c       0.000252      0.000110      0.003453      0.000000
     74 O2    c      -0.000887      0.000810      0.002339      0.000000
     75 O2    c       0.000356      0.001088      0.004495      0.000000
     76 O2    c      -0.000708      0.000715      0.001917      0.000000
     77 O2    c       0.000042      0.000217     -0.001590      0.000000
     78 O2    c      -0.000475      0.000857     -0.002258      0.000000
     79 O2    c      -0.000441      0.000764     -0.003652      0.000000
     80 O2    c       0.000211      0.000218     -0.002607      0.000000
     81 O2    c       0.002476      0.001035     -0.002799      0.000000
     82 O2    c       0.000399      0.000105     -0.002961      0.000000
     83 O2    c      -0.000135     -0.000212      0.000776      0.000000
     84 O2    c       0.000643     -0.001430     -0.003671      0.000000
     85 O2    c       0.001184      0.000222     -0.004196      0.000000
     86 O2    c      -0.000489     -0.000109      0.001073      0.000000
     87 O2    c       0.003935      0.004298     -0.014698      0.000000
     88 O2    c      -0.000282     -0.000560     -0.004732      0.000000
     89 O2    c      -0.000033     -0.000156      0.003660      0.000000
     90 O2    c       0.014028      0.005990     -0.012455      0.000000
     91 O2    c      -0.000424      0.000755      0.001028      0.000000
     92 O2    c       0.000651     -0.000858      0.003546      0.000000
     93 O2    c      -0.000364     -0.000660     -0.000126      0.000000
     94 O2    c      -0.000440     -0.000915      0.003547      0.000000
     95 O2    c       0.001168     -0.001028      0.004328      0.000000
     96 O2    c       0.000360      0.000603      0.002708      0.000000
     97 O2    c       0.000470     -0.000767      0.000540      0.000000
     98 O2    c      -0.000106      0.000465      0.003507      0.000000
     99 O2    c       0.000061      0.001515      0.001643      0.000000
    100 O2    c      -0.000315      0.000789      0.002981      0.000000
    101 O2    c      -0.000591      0.000016      0.000400      0.000000
    102 O2    c      -0.000836     -0.000205     -0.002749      0.000000
    103 O2    c      -0.001604      0.001182     -0.006988      0.000000
    104 O2    c       0.000353      0.002013      0.002062      0.000000
    105 O2    c       0.004207      0.003824      0.009266      0.000000
    106 O2    c       0.000122      0.001755     -0.005738      0.000000
    107 O2    c       0.000270     -0.000480      0.000894      0.000000
    108 O2    c       0.001071     -0.000201      0.002154      0.000000
    109 O2    c       0.000999      0.000249     -0.002402      0.000000
    110 O2    c       0.000069     -0.000163     -0.002088      0.000000
    111 O2    c      -0.000773     -0.001927      0.000196      0.000000
    112 O2    c       0.000956     -0.000216     -0.003246      0.000000
    113 O2    c      -0.000119     -0.000344     -0.000650      0.000000
    114 O2    c      -0.001013     -0.000278      0.000829      0.000000
    115 O2    c      -0.000066     -0.000617     -0.000237      0.000000
    116 O2    c      -0.000940      0.000766      0.005098      0.000000
    117 O2    c      -0.007591      0.004680     -0.008415      0.000000
    118 O2    c      -0.001055     -0.000147      0.002872      0.000000
    119 O2    c      -0.001121     -0.000037     -0.004058      0.000000
    120 O2    c      -0.001264      0.000668     -0.003607      0.000000
    121 O2    c      -0.001409     -0.000070     -0.000123      0.000000
    122 O2    c      -0.000903      0.001065     -0.002496      0.000000
    123 O2    c      -0.000261     -0.000964     -0.006009      0.000000
    124 O2    c      -0.001419     -0.001656      0.004226      0.000000
    125 O2    c       0.000480     -0.000565      0.001543      0.000000
    126 O2    c      -0.010728      0.007745     -0.016048      0.000000
    127 O2    c       0.000004     -0.000219      0.001342      0.000000
    128 O2    c       0.000892      0.000788     -0.002058      0.000000
    129 O2    c       0.000800      0.004384     -0.005179      0.000000
    130 O2    c       0.001312     -0.000411     -0.002866      0.000000
    131 O2    c       0.000227      0.000782      0.004927      0.000000
    132 O2    c      -0.000179      0.001345      0.006172      0.000000
    133 O2    c       0.000263      0.000373      0.004886      0.000000
    134 O2    c       0.000853      0.000666      0.002913      0.000000
    135 O2    c       0.000960      0.000375      0.001479      0.000000
    136 O2    c       0.001673     -0.000372     -0.000057      0.000000
    137 O2    c       0.002068     -0.001545      0.002784      0.000000
    138 O2    c      -0.001089     -0.000698      0.002926      0.000000
    139 O2    c      -0.000059     -0.000512      0.002366      0.000000
    140 O2    c      -0.000315     -0.000318     -0.001503      0.000000
    141 O2    c      -0.001412     -0.001149     -0.006803      0.000000
    142 O2    c       0.000535      0.000724      0.002317      0.000000
    143 O2    c       0.000182     -0.000744     -0.002112      0.000000
    144 O2    c       0.000239     -0.000988     -0.002295      0.000000
    145 O2    c      -0.002383     -0.003800     -0.002473      0.000000
    146 O2    c       0.001143     -0.000468      0.002998      0.000000
    147 O2    c       0.003905     -0.004719      0.004352      0.000000
    148 O2    c       0.000977     -0.000271      0.000131      0.000000
    149 O2    c       0.000546      0.000525      0.003468      0.000000
    150 O2    c       0.000608      0.001672      0.002607      0.000000
    151 O2    c      -0.000771      0.000356      0.004923      0.000000
    152 O2    c      -0.000405     -0.000127      0.001466      0.000000
    153 O2    c      -0.000043      0.000827      0.001115      0.000000
    154 O2    c       0.000203     -0.000323     -0.001665      0.000000
    155 O2    c      -0.000370      0.000827     -0.002105      0.000000
    156 O2    c      -0.006365      0.001180      0.036249      0.000000
    157 O2    c       0.001054      0.000344     -0.002308      0.000000
    158 O2    c      -0.001252      0.000184     -0.001814      0.000000
    159 O2    c      -0.000514      0.000918      0.002117      0.000000
    160 O2    c      -0.004550     -0.030998     -0.031695      0.000000
    161 O2    s       0.000291      0.000369     -0.001923      0.000000
    162 O2    s       0.002644      0.000570     -0.006666      0.000000
    163 O2    s      -0.000124      0.002730      0.002955      0.000000
    164 O2    s      -0.000565      0.002170     -0.000108      0.000000
    165 O2    s      -0.001255      0.000892     -0.003370      0.000000
    166 O2    s       0.001673     -0.001940     -0.012237      0.000000
    167 O2    s      -0.000009     -0.000549     -0.002209      0.000000
    168 O2    s       0.002041     -0.003022     -0.001351      0.000000
    169 O2    s       0.000064     -0.000291     -0.002088      0.000000
    170 O2    s       0.000831     -0.000688     -0.001124      0.000000
    171 O2    s      -0.003157     -0.001527     -0.010642      0.000000
    172 O2    s       0.001249     -0.000639     -0.002542      0.000000
    173 O2    s      -0.000156     -0.000480      0.001512      0.000000
    174 O2    s       0.000580     -0.000454     -0.000782      0.000000
    175 O2    s       0.001120     -0.000989      0.003442      0.000000
    176 O2    s      -0.000390     -0.000124      0.002029      0.000000
    177 O2    s      -0.006248     -0.001887     -0.005353      0.000000
    178 O2    s      -0.000042     -0.000323      0.003248      0.000000
    179 O2    s      -0.000508     -0.000102     -0.001417      0.000000
    180 O2    s      -0.000176      0.002474      0.002488      0.000000
    181 O2    s      -0.001680      0.000197     -0.000083      0.000000
    182 O2    s       0.001201      0.000664     -0.002023      0.000000
    183 O2    s      -0.006648     -0.006938      0.012583      0.000000
    184 O2    s       0.000327      0.000083      0.005494      0.000000
    185 O2    s       0.000306      0.000268     -0.003469      0.000000
    186 O2    s      -0.013547      0.000166      0.001639      0.000000
    187 O2    s       0.000485     -0.001611      0.000147      0.000000
    188 O2    s      -0.000394      0.001116     -0.003302      0.000000
    189 O2    s       0.002936      0.000636     -0.001076      0.000000
    190 O2    s       0.001199      0.000295     -0.004256      0.000000
    191 O2    s      -0.001130      0.001142     -0.001528      0.000000
    192 O2    s      -0.001992     -0.001315     -0.001688      0.000000
    193 O2    s       0.000055      0.000270      0.004075      0.000000
    194 O2    s      -0.000262     -0.000532      0.001492      0.000000
    195 O2    s      -0.000441     -0.002139      0.000240      0.000000
    196 O2    s       0.001207     -0.000721      0.003149      0.000000
    197 O2    s       0.000085      0.000662      0.002560      0.000000
    198 O2    s       0.000681      0.000701      0.001690      0.000000
    199 O2    s       0.003445     -0.004139      0.012796      0.000000
    200 O2    s       0.000549     -0.000923      0.002002      0.000000
    201 O2    s      -0.007533     -0.004652     -0.009267      0.000000
    202 O2    s      -0.000825     -0.004180      0.005913      0.000000
    203 O2    s      -0.000216      0.000317      0.002172      0.000000
    204 O2    s      -0.000608     -0.001388     -0.008259      0.000000
    205 O2    s      -0.000601     -0.000253      0.001633      0.000000
    206 O2    s       0.000022      0.000437      0.002855      0.000000
    207 O2    s       0.001737      0.002665     -0.008918      0.000000
    208 O2    s      -0.000373      0.000247      0.002871      0.000000
    209 O2    s      -0.000365      0.000198      0.000042      0.000000
    210 O2    s       0.001378      0.002544     -0.000738      0.000000
    211 O2    s      -0.000463     -0.000194      0.000432      0.000000
    212 O2    s       0.002106     -0.000850      0.001897      0.000000
    213 O2    s       0.007314     -0.002790      0.006556      0.000000
    214 O2    s       0.001139     -0.000449      0.000206      0.000000
    215 O2    s      -0.000096     -0.000751      0.001399      0.000000
    216 O2    s       0.002144     -0.000468      0.002812      0.000000
    217 O2    s       0.002191      0.000724      0.002126      0.000000
    218 O2    s       0.000096     -0.000936      0.001243      0.000000
    219 O2    s      -0.000204      0.003341      0.009006      0.000000
    220 O2    s       0.002033      0.003878     -0.019046      0.000000
    221 O2    s      -0.000031      0.000274     -0.002170      0.000000
    222 O2    s       0.016921     -0.012138      0.007493      0.000000
    223 O2    s       0.000547     -0.000549     -0.002416      0.000000
    224 O2    s      -0.000501     -0.000293      0.000274      0.000000
    225 O2    s      -0.001824     -0.007350      0.019150      0.000000
    226 O2    s      -0.001369      0.001226      0.001116      0.000000
    227 O2    s       0.000268     -0.000365     -0.003364      0.000000
    228 O2    s       0.001069     -0.002215     -0.010506      0.000000
    229 O2    s      -0.001319      0.000848     -0.002725      0.000000
    230 O2    s      -0.000645     -0.000849      0.001461      0.000000
    231 O2    s      -0.001616     -0.000568      0.000753      0.000000
    232 O2    s      -0.002790     -0.000435      0.001195      0.000000
    233 O2    s      -0.002064      0.001780      0.001414      0.000000
    234 O2    s       0.001773      0.000721     -0.001957      0.000000
    235 O2    s       0.000710     -0.000835      0.000479      0.000000
    236 O2    s      -0.000212      0.000285      0.001507      0.000000
    237 O2    s       0.001862      0.004631      0.012245      0.000000
    238 O2    s      -0.000741     -0.000027     -0.003025      0.000000
    239 O2    s       0.000538      0.000678      0.002337      0.000000
    240 O2    s       0.000289      0.001088     -0.000269      0.000000
    241 O2    s       0.000968      0.008207      0.001486      0.000000
    242 O2    s      -0.001016      0.001470      0.000163      0.000000
    243 O2    s      -0.003289      0.001257     -0.000556      0.000000
    244 O2    s      -0.000927      0.000418      0.000656      0.000000
    245 O2    s      -0.000124     -0.000447     -0.002433      0.000000
    246 O2    s      -0.001436     -0.001873     -0.001015      0.000000
    247 O2    s      -0.000158     -0.001194     -0.002211      0.000000
    248 O2    s       0.000926      0.000324     -0.001504      0.000000
    249 O2    s       0.000094     -0.000625     -0.000474      0.000000
    250 O2    s      -0.000340      0.000900      0.004644      0.000000
    251 O2    s       0.000235     -0.000785      0.002722      0.000000
    252 O2    s       0.004919      0.003490     -0.057790      0.000000
    253 O2    s      -0.000811     -0.000584     -0.004241      0.000000
    254 O2    s       0.001050      0.000123      0.001419      0.000000
    255 O2    s       0.000288     -0.001098     -0.001184      0.000000
    256 O2    s       0.010178      0.007079      0.008340      0.000000
--------------------------------------------------------------------------------
  Maximum abs         0.016921      0.030998      0.097728      0.000000
--------------------------------------------------------------------------------


  Time to end of optimisation =     112.5783 seconds


  Peak dynamic memory used =      14.83 MB 


  Timing analysis for GULP :

--------------------------------------------------------------------------------
  Task / Subroutine                                          Time (Seconds)
--------------------------------------------------------------------------------
  Calculation of reciprocal space energy and derivatives          5.6552
  Calculation of real space energy and derivatives               99.9297
  Calculation and manipulation of Hessian matrix                  3.4692
  Calculation of matrix inversion                                 3.2183
  Global summation overhead                                       0.0029
--------------------------------------------------------------------------------
  Total CPU time                                                112.5783
--------------------------------------------------------------------------------


  Job Finished at 07:49.49  6th April      2026                               

