********************************************************************************
*                       GENERAL UTILITY LATTICE PROGRAM                        *
*                                 Julian Gale                                  *
*                       Curtin Institute for Computation                       *
*                    School of Molecular and Life Sciences                     *
*                    Curtin University, Western Australia                      *
********************************************************************************
* Version = 6.4.0 * Last modified =  22nd December 2025                        *
********************************************************************************
*  optimise     - perform optimisation run                                     *
*  conp         - constant pressure calculation                                *
********************************************************************************
*  Al/Fe substitutions in LaFeO3  perovskite - configuration 4                 *
********************************************************************************


  Job Started  at 17:31.40  5th April      2026                               

  Number of CPUs =     1


  Total number of configurations input =      1

********************************************************************************
*  Input for Configuration =   1                                               *
********************************************************************************

  Formula = La8Al4Fe4O24

  Number of irreducible atoms/shells =      80


  Total number atoms/shells =      80

  Dimensionality = 3               :  Bulk   



  Cartesian lattice vectors (Angstroms) :

        7.400000    0.000000    0.000000
        0.000000    7.400000    0.000000
        0.000000    0.000000    7.400000

  Cell parameters (Angstroms/Degrees):

  a =       7.4000    alpha =  90.0000
  b =       7.4000    beta  =  90.0000
  c =       7.4000    gamma =  90.0000

  Initial cell volume =         405.224000 Angs**3

  Temperature of configuration =   0.00     K 

  Pressure of configuration =         0.000 GPa 

  Fractional coordinates of asymmetric unit :

--------------------------------------------------------------------------------
   No.  Atomic       x           y          z         Charge      Occupancy
        Label      (Frac)      (Frac)     (Frac)        (e)         (Frac)  
--------------------------------------------------------------------------------
      1 La    c    0.000000    0.000000    0.000000     5.14900    1.000000    
      2 La    c    0.000000 *  0.000000 *  0.500000 *   5.14900    1.000000    
      3 La    c    0.000000 *  0.500000 *  0.000000 *   5.14900    1.000000    
      4 La    c    0.000000 *  0.500000 *  0.500000 *   5.14900    1.000000    
      5 La    c    0.500000 *  0.000000 *  0.000000 *   5.14900    1.000000    
      6 La    c    0.500000 *  0.000000 *  0.500000 *   5.14900    1.000000    
      7 La    c    0.500000 *  0.500000 *  0.000000 *   5.14900    1.000000    
      8 La    c    0.500000 *  0.500000 *  0.500000 *   5.14900    1.000000    
      9 Al    c    0.250000 *  0.250000 *  0.250000 *   0.04300    1.000000    
     10 Al    c    0.250000 *  0.250000 *  0.750000 *   0.04300    1.000000    
     11 Al    c    0.250000 *  0.750000 *  0.250000 *   0.04300    1.000000    
     12 Fe    c    0.250000 *  0.750000 *  0.750000 *   1.97100    1.000000    
     13 Fe    c    0.750000 *  0.250000 *  0.250000 *   1.97100    1.000000    
     14 Fe    c    0.750000 *  0.250000 *  0.750000 *   1.97100    1.000000    
     15 Fe    c    0.750000 *  0.750000 *  0.250000 *   1.97100    1.000000    
     16 Al    c    0.750000 *  0.750000 *  0.750000 *   0.04300    1.000000    
     17 O     c    0.250000 *  0.250000 *  0.000000 *   0.51300    1.000000    
     18 O     c    0.250000 *  0.250000 *  0.500000 *   0.51300    1.000000    
     19 O     c    0.250000 *  0.750000 *  0.000000 *   0.51300    1.000000    
     20 O     c    0.250000 *  0.750000 *  0.500000 *   0.51300    1.000000    
     21 O     c    0.750000 *  0.250000 *  0.000000 *   0.51300    1.000000    
     22 O     c    0.750000 *  0.250000 *  0.500000 *   0.51300    1.000000    
     23 O     c    0.750000 *  0.750000 *  0.000000 *   0.51300    1.000000    
     24 O     c    0.750000 *  0.750000 *  0.500000 *   0.51300    1.000000    
     25 O     c    0.000000 *  0.250000 *  0.250000 *   0.51300    1.000000    
     26 O     c    0.000000 *  0.250000 *  0.750000 *   0.51300    1.000000    
     27 O     c    0.000000 *  0.750000 *  0.250000 *   0.51300    1.000000    
     28 O     c    0.000000 *  0.750000 *  0.750000 *   0.51300    1.000000    
     29 O     c    0.500000 *  0.250000 *  0.250000 *   0.51300    1.000000    
     30 O     c    0.500000 *  0.250000 *  0.750000 *   0.51300    1.000000    
     31 O     c    0.500000 *  0.750000 *  0.250000 *   0.51300    1.000000    
     32 O     c    0.500000 *  0.750000 *  0.750000 *   0.51300    1.000000    
     33 O     c    0.250000 *  0.000000 *  0.250000 *   0.51300    1.000000    
     34 O     c    0.250000 *  0.000000 *  0.750000 *   0.51300    1.000000    
     35 O     c    0.250000 *  0.500000 *  0.250000 *   0.51300    1.000000    
     36 O     c    0.250000 *  0.500000 *  0.750000 *   0.51300    1.000000    
     37 O     c    0.750000 *  0.000000 *  0.250000 *   0.51300    1.000000    
     38 O     c    0.750000 *  0.000000 *  0.750000 *   0.51300    1.000000    
     39 O     c    0.750000 *  0.500000 *  0.250000 *   0.51300    1.000000    
     40 O     c    0.750000 *  0.500000 *  0.750000 *   0.51300    1.000000    
     41 La    s    0.000000 *  0.000000 *  0.000000 *  -2.14900    1.000000    
     42 La    s    0.000000 *  0.000000 *  0.500000 *  -2.14900    1.000000    
     43 La    s    0.000000 *  0.500000 *  0.000000 *  -2.14900    1.000000    
     44 La    s    0.000000 *  0.500000 *  0.500000 *  -2.14900    1.000000    
     45 La    s    0.500000 *  0.000000 *  0.000000 *  -2.14900    1.000000    
     46 La    s    0.500000 *  0.000000 *  0.500000 *  -2.14900    1.000000    
     47 La    s    0.500000 *  0.500000 *  0.000000 *  -2.14900    1.000000    
     48 La    s    0.500000 *  0.500000 *  0.500000 *  -2.14900    1.000000    
     49 Al    s    0.250000 *  0.250000 *  0.250000 *   2.95700    1.000000    
     50 Al    s    0.250000 *  0.250000 *  0.750000 *   2.95700    1.000000    
     51 Al    s    0.250000 *  0.750000 *  0.250000 *   2.95700    1.000000    
     52 Fe    s    0.250000 *  0.750000 *  0.750000 *   1.02900    1.000000    
     53 Fe    s    0.750000 *  0.250000 *  0.250000 *   1.02900    1.000000    
     54 Fe    s    0.750000 *  0.250000 *  0.750000 *   1.02900    1.000000    
     55 Fe    s    0.750000 *  0.750000 *  0.250000 *   1.02900    1.000000    
     56 Al    s    0.750000 *  0.750000 *  0.750000 *   2.95700    1.000000    
     57 O     s    0.250000 *  0.250000 *  0.000000 *  -2.51300    1.000000    
     58 O     s    0.250000 *  0.250000 *  0.500000 *  -2.51300    1.000000    
     59 O     s    0.250000 *  0.750000 *  0.000000 *  -2.51300    1.000000    
     60 O     s    0.250000 *  0.750000 *  0.500000 *  -2.51300    1.000000    
     61 O     s    0.750000 *  0.250000 *  0.000000 *  -2.51300    1.000000    
     62 O     s    0.750000 *  0.250000 *  0.500000 *  -2.51300    1.000000    
     63 O     s    0.750000 *  0.750000 *  0.000000 *  -2.51300    1.000000    
     64 O     s    0.750000 *  0.750000 *  0.500000 *  -2.51300    1.000000    
     65 O     s    0.000000 *  0.250000 *  0.250000 *  -2.51300    1.000000    
     66 O     s    0.000000 *  0.250000 *  0.750000 *  -2.51300    1.000000    
     67 O     s    0.000000 *  0.750000 *  0.250000 *  -2.51300    1.000000    
     68 O     s    0.000000 *  0.750000 *  0.750000 *  -2.51300    1.000000    
     69 O     s    0.500000 *  0.250000 *  0.250000 *  -2.51300    1.000000    
     70 O     s    0.500000 *  0.250000 *  0.750000 *  -2.51300    1.000000    
     71 O     s    0.500000 *  0.750000 *  0.250000 *  -2.51300    1.000000    
     72 O     s    0.500000 *  0.750000 *  0.750000 *  -2.51300    1.000000    
     73 O     s    0.250000 *  0.000000 *  0.250000 *  -2.51300    1.000000    
     74 O     s    0.250000 *  0.000000 *  0.750000 *  -2.51300    1.000000    
     75 O     s    0.250000 *  0.500000 *  0.250000 *  -2.51300    1.000000    
     76 O     s    0.250000 *  0.500000 *  0.750000 *  -2.51300    1.000000    
     77 O     s    0.750000 *  0.000000 *  0.250000 *  -2.51300    1.000000    
     78 O     s    0.750000 *  0.000000 *  0.750000 *  -2.51300    1.000000    
     79 O     s    0.750000 *  0.500000 *  0.250000 *  -2.51300    1.000000    
     80 O     s    0.750000 *  0.500000 *  0.750000 *  -2.51300    1.000000    
--------------------------------------------------------------------------------



********************************************************************************
*  General input information                                                   *
********************************************************************************

  Species output for all configurations : 

--------------------------------------------------------------------------------
  Species    Type    Atomic    Atomic    Charge       Radii (Angs)     Library
                     Number     Mass       (e)     Cova   Ionic  VDW   Symbol
--------------------------------------------------------------------------------
    Fe       Core       26      55.85   1.971000   1.340  0.000  2.000          
    Fe       Shell      26       0.00   1.029000   1.340  0.000  2.000          
    Al       Core       13      26.98   0.043000   1.350  0.000  2.050          
    Al       Shell      13       0.00   2.957000   1.350  0.000  2.050          
    La       Core       57     138.91   5.149000   1.870  0.000  2.790          
    La       Shell      57       0.00  -2.149000   1.870  0.000  2.790          
    O        Core        8      16.00   0.513000   0.730  0.000  1.360          
    O        Shell       8       0.00  -2.513000   0.730  0.000  1.360          
--------------------------------------------------------------------------------


  Lattice summation method               =    Ewald          (3-D)
                                         =    Parry          (2-D)
                                         =    Saunders et al (1-D)
  Accuracy factor for lattice sums       =   12.000


  Analytic derivatives to be used

  Time limit = Infinity

  Maximum range for interatomic potentials =    100000.000000 Angstroms

  General interatomic potentials :

--------------------------------------------------------------------------------
Atom  Types   Potential      Parameter       Value         Units   Cutoffs(Ang)
  1     2                                                            Min /  Max 
--------------------------------------------------------------------------------
O    s Fe   s Buckingham    Buckingham A     3219.3350    eV        0.000 10.000
                            Buckingham rho  0.26410000    Ang       
                            Buckingham C     0.0000000    eV*Ang^6  
--------------------------------------------------------------------------------
O    s Al   s Buckingham    Buckingham A     2409.5050    eV        0.000 10.000
                            Buckingham rho  0.26490000    Ang       
                            Buckingham C     0.0000000    eV*Ang^6  
--------------------------------------------------------------------------------
O    s La   s Buckingham    Buckingham A     5436.8270    eV        0.000 10.000
                            Buckingham rho  0.29390000    Ang       
                            Buckingham C     0.0000000    eV*Ang^6  
--------------------------------------------------------------------------------
O    s O    s Buckingham    Buckingham A     25.410000    eV        0.000 12.000
                            Buckingham rho  0.69370000    Ang       
                            Buckingham C     32.320000    eV*Ang^6  
--------------------------------------------------------------------------------
Fe   c Fe   s Spring (c-s)  Spring k 2       179.58000    eV*Ang^-2 0.000  0.800
                            Spring k 4       0.0000000    eV*Ang^-4 
--------------------------------------------------------------------------------
Al   c Al   s Spring (c-s)  Spring k 2       403.98000    eV*Ang^-2 0.000  0.800
                            Spring k 4       0.0000000    eV*Ang^-4 
--------------------------------------------------------------------------------
La   c La   s Spring (c-s)  Spring k 2       173.90000    eV*Ang^-2 0.000  0.800
                            Spring k 4       0.0000000    eV*Ang^-4 
--------------------------------------------------------------------------------
O    c O    s Spring (c-s)  Spring k 2       20.530000    eV*Ang^-2 0.000  0.800
                            Spring k 4       0.0000000    eV*Ang^-4 
--------------------------------------------------------------------------------

********************************************************************************
*  Output for configuration   1                                                *
********************************************************************************


  Components of energy : 

--------------------------------------------------------------------------------
  Interatomic potentials     =         259.03555808 eV    
  Monopole - monopole (real) =        -714.63043649 eV    
  Monopole - monopole (recip)=        -672.57146413 eV    
  Monopole - monopole (total)=       -1387.20190062 eV    
--------------------------------------------------------------------------------
  Total lattice energy       =       -1128.16634254 eV    
--------------------------------------------------------------------------------
  Total lattice energy       =         -108850.8065 kJ/(mole unit cells)
--------------------------------------------------------------------------------


  Number of variables =      243

  Maximum number of calculations  =          1000
  Maximum Hessian update interval =            10
  Maximum step size               =   1.000000000
  Maximum parameter tolerance     =   0.000010000
  Maximum function  tolerance     =   0.000010000
  Maximum gradient  tolerance     =   0.001000000
  Maximum gradient  component     =   0.010000000

  Symmetry not applied to optimisation

  Cell parameters to be optimised using strains

  Newton-Raphson optimiser to be used

  BFGS hessian update to be used

  Hessian eigenvalue shifts to be used to ensure all values are positive

  Lower half triangular hessian to be used

  Start of bulk optimisation :

  Cycle:      0 Energy:     -1128.166343  Gnorm:      0.961521  CPU:    0.038
  ** Hessian calculated **
  Cycle:      1 Energy:     -1136.933821  Gnorm:      0.041428  CPU:    0.067
  Cycle:      2 Energy:     -1136.956621  Gnorm:      0.005135  CPU:    0.091
  Cycle:      3 Energy:     -1136.957123  Gnorm:      0.001659  CPU:    0.111
  Cycle:      4 Energy:     -1136.957131  Gnorm:      0.000130  CPU:    0.131


  **** Optimisation achieved ****


  Final energy =   -1136.95713148 eV      
  Final Gnorm  =       0.00004591

  Components of energy : 

--------------------------------------------------------------------------------
  Interatomic potentials     =         190.11249867 eV    
  Monopole - monopole (real) =         -43.11812415 eV    
  Monopole - monopole (recip)=       -1283.95150599 eV    
  Monopole - monopole (total)=       -1327.06963014 eV    
--------------------------------------------------------------------------------
  Total lattice energy       =       -1136.95713148 eV    
--------------------------------------------------------------------------------
  Total lattice energy       =         -109698.9832 kJ/(mole unit cells)
--------------------------------------------------------------------------------

  Final fractional coordinates of atoms :

--------------------------------------------------------------------------------
   No.  Atomic        x           y          z          Radius
        Label       (Frac)      (Frac)     (Frac)       (Angs) 
--------------------------------------------------------------------------------
     1  La    c     0.000000    0.000000    0.000000    0.000000
     2  La    c     0.000000    1.000000    0.499873    0.000000
     3  La    c     0.000000    0.499873    1.000000    0.000000
     4  La    c     0.000000    0.499873    0.499873    0.000000
     5  La    c     0.493923    1.000000    1.000000    0.000000
     6  La    c     0.493923    1.000000    0.499873    0.000000
     7  La    c     0.493923    0.499873    1.000000    0.000000
     8  La    c     0.493923    0.499873    0.499873    0.000000
     9  Al    c     0.246962    0.249937    0.249937    0.000000
    10  Al    c     0.246962    0.249937    0.749937    0.000000
    11  Al    c     0.246962    0.749937    0.249937    0.000000
    12  Fe    c     0.246962    0.749937    0.749937    0.000000
    13  Fe    c     0.746962    0.249937    0.249937    0.000000
    14  Fe    c     0.746962    0.249937    0.749937    0.000000
    15  Fe    c     0.746962    0.749937    0.249937    0.000000
    16  Al    c     0.746962    0.749937    0.749937    0.000000
    17  O     c     0.246962    0.249937    0.000241    0.000000
    18  O     c     0.246962    0.249937    0.499632    0.000000
    19  O     c     0.246962    0.749937    0.004341    0.000000
    20  O     c     0.246962    0.749937    0.495532    0.000000
    21  O     c     0.746962    0.249937    0.999774    0.000000
    22  O     c     0.746962    0.249937    0.500099    0.000000
    23  O     c     0.746962    0.749937    0.995546    0.000000
    24  O     c     0.746962    0.749937    0.504327    0.000000
    25  O     c     0.003244    0.249937    0.249937    0.000000
    26  O     c     0.002832    0.249937    0.749937    0.000000
    27  O     c     0.002832    0.749937    0.249937    0.000000
    28  O     c     0.993808    0.749937    0.749937    0.000000
    29  O     c     0.490679    0.249937    0.249937    0.000000
    30  O     c     0.491091    0.249937    0.749937    0.000000
    31  O     c     0.491091    0.749937    0.249937    0.000000
    32  O     c     0.500115    0.749937    0.749937    0.000000
    33  O     c     0.246962    0.000241    0.249937    0.000000
    34  O     c     0.246962    0.004341    0.749937    0.000000
    35  O     c     0.246962    0.499632    0.249937    0.000000
    36  O     c     0.246962    0.495532    0.749937    0.000000
    37  O     c     0.746962    0.999774    0.249937    0.000000
    38  O     c     0.746962    0.995546    0.749937    0.000000
    39  O     c     0.746962    0.500099    0.249937    0.000000
    40  O     c     0.746962    0.504327    0.749937    0.000000
    41  La    s     0.999434    0.999988    0.999988    0.000000
    42  La    s     0.999434    0.999988    0.499886    0.000000
    43  La    s     0.999434    0.499886    0.999988    0.000000
    44  La    s     0.999434    0.499886    0.499886    0.000000
    45  La    s     0.494489    0.999988    0.999988    0.000000
    46  La    s     0.494489    0.999988    0.499886    0.000000
    47  La    s     0.494489    0.499886    0.999988    0.000000
    48  La    s     0.494489    0.499886    0.499886    0.000000
    49  Al    s     0.246962    0.249937    0.249937    0.000000
    50  Al    s     0.246962    0.249937    0.749937    0.000000
    51  Al    s     0.246962    0.749937    0.249937    0.000000
    52  Fe    s     0.246962    0.749937    0.749937    0.000000
    53  Fe    s     0.746962    0.249937    0.249937    0.000000
    54  Fe    s     0.746962    0.249937    0.749937    0.000000
    55  Fe    s     0.746962    0.749937    0.249937    0.000000
    56  Al    s     0.746962    0.749937    0.749937    0.000000
    57  O     s     0.246962    0.249937    0.000443    0.000000
    58  O     s     0.246962    0.249937    0.499430    0.000000
    59  O     s     0.246962    0.749937    0.004290    0.000000
    60  O     s     0.246962    0.749937    0.495583    0.000000
    61  O     s     0.746962    0.249937    0.999616    0.000000
    62  O     s     0.746962    0.249937    0.500257    0.000000
    63  O     s     0.746962    0.749937    0.995595    0.000000
    64  O     s     0.746962    0.749937    0.504278    0.000000
    65  O     s     0.004970    0.249937    0.249937    0.000000
    66  O     s     0.004224    0.249937    0.749937    0.000000
    67  O     s     0.004224    0.749937    0.249937    0.000000
    68  O     s     0.995120    0.749937    0.749937    0.000000
    69  O     s     0.488953    0.249937    0.249937    0.000000
    70  O     s     0.489699    0.249937    0.749937    0.000000
    71  O     s     0.489699    0.749937    0.249937    0.000000
    72  O     s     0.498803    0.749937    0.749937    0.000000
    73  O     s     0.246962    0.000443    0.249937    0.000000
    74  O     s     0.246962    0.004290    0.749937    0.000000
    75  O     s     0.246962    0.499430    0.249937    0.000000
    76  O     s     0.246962    0.495583    0.749937    0.000000
    77  O     s     0.746962    0.999616    0.249937    0.000000
    78  O     s     0.746962    0.995595    0.749937    0.000000
    79  O     s     0.746962    0.500257    0.249937    0.000000
    80  O     s     0.746962    0.504278    0.749937    0.000000
--------------------------------------------------------------------------------

  Final Cartesian lattice vectors (Angstroms) :

        7.726092   -0.000000   -0.000000
       -0.000000    7.742218   -0.000000
       -0.000000   -0.000000    7.742218


  Final cell parameters and derivatives :

--------------------------------------------------------------------------------
       a            7.726092 Angstrom     dE/de1(xx)     0.008318 eV/strain
       b            7.742218 Angstrom     dE/de2(yy)     0.000533 eV/strain
       c            7.742218 Angstrom     dE/de3(zz)     0.000533 eV/strain
       alpha       90.000000 Degrees      dE/de4(yz)    -0.000000 eV/strain
       beta        90.000000 Degrees      dE/de5(xz)    -0.000000 eV/strain
       gamma       90.000000 Degrees      dE/de6(xy)    -0.000000 eV/strain
--------------------------------------------------------------------------------

  Primitive cell volume =           463.116955 Angs**3

  Density of cell =      6.549509 g/cm**3

  Non-primitive cell volume =           463.116955 Angs**3


  Final internal derivatives :

--------------------------------------------------------------------------------
   No.  Atomic          a             b             c           Radius
        Label          (eV)          (eV)          (eV)        (eV/Angs)
--------------------------------------------------------------------------------
      1 La    c       0.000000      0.000000      0.000000      0.000000
      2 La    c      -0.001947     -0.000085      0.000085      0.000000
      3 La    c      -0.001947      0.000085     -0.000085      0.000000
      4 La    c      -0.001947      0.000085      0.000085      0.000000
      5 La    c       0.001947     -0.000085     -0.000085      0.000000
      6 La    c       0.001947     -0.000085      0.000085      0.000000
      7 La    c       0.001947      0.000085     -0.000085      0.000000
      8 La    c       0.001947      0.000085      0.000085      0.000000
      9 Al    c       0.000000      0.000000     -0.000000      0.000000
     10 Al    c       0.000000      0.000000      0.000000      0.000000
     11 Al    c       0.000000      0.000000      0.000000      0.000000
     12 Fe    c      -0.000000     -0.000000      0.000000      0.000000
     13 Fe    c      -0.000000     -0.000000     -0.000000      0.000000
     14 Fe    c      -0.000000     -0.000000      0.000000      0.000000
     15 Fe    c      -0.000000      0.000000     -0.000000      0.000000
     16 Al    c      -0.000000     -0.000000     -0.000000      0.000000
     17 O     c      -0.000000      0.000000      0.000096      0.000000
     18 O     c       0.000000      0.000000     -0.000096      0.000000
     19 O     c      -0.000000     -0.000000     -0.000224      0.000000
     20 O     c       0.000000     -0.000000      0.000224      0.000000
     21 O     c      -0.000000     -0.000000     -0.000228      0.000000
     22 O     c      -0.000000      0.000000      0.000228      0.000000
     23 O     c      -0.000000      0.000000     -0.000233      0.000000
     24 O     c       0.000000      0.000000      0.000233      0.000000
     25 O     c       0.000435      0.000000     -0.000000      0.000000
     26 O     c       0.000019      0.000000      0.000000      0.000000
     27 O     c       0.000019      0.000000      0.000000      0.000000
     28 O     c       0.000086      0.000000     -0.000000      0.000000
     29 O     c      -0.000435      0.000000      0.000000      0.000000
     30 O     c      -0.000019      0.000000      0.000000      0.000000
     31 O     c      -0.000019      0.000000      0.000000      0.000000
     32 O     c      -0.000086     -0.000000     -0.000000      0.000000
     33 O     c      -0.000000      0.000096      0.000000      0.000000
     34 O     c      -0.000000     -0.000224     -0.000000      0.000000
     35 O     c       0.000000     -0.000096      0.000000      0.000000
     36 O     c       0.000000      0.000224      0.000000      0.000000
     37 O     c      -0.000000     -0.000228      0.000000      0.000000
     38 O     c      -0.000000     -0.000233     -0.000000      0.000000
     39 O     c      -0.000000      0.000228      0.000000      0.000000
     40 O     c       0.000000      0.000233      0.000000      0.000000
     41 La    s       0.001101     -0.000278     -0.000278      0.000000
     42 La    s       0.001101     -0.000278      0.000278      0.000000
     43 La    s       0.001101      0.000278     -0.000278      0.000000
     44 La    s       0.001101      0.000278      0.000278      0.000000
     45 La    s      -0.001101     -0.000278     -0.000278      0.000000
     46 La    s      -0.001101     -0.000278      0.000278      0.000000
     47 La    s      -0.001101      0.000278     -0.000278      0.000000
     48 La    s      -0.001101      0.000278      0.000278      0.000000
     49 Al    s       0.000000     -0.000000      0.000000      0.000000
     50 Al    s      -0.000000      0.000000      0.000000      0.000000
     51 Al    s      -0.000000      0.000000      0.000000      0.000000
     52 Fe    s      -0.000000     -0.000000     -0.000000      0.000000
     53 Fe    s      -0.000000      0.000000      0.000000      0.000000
     54 Fe    s      -0.000000      0.000000     -0.000000      0.000000
     55 Fe    s      -0.000000      0.000000      0.000000      0.000000
     56 Al    s       0.000000     -0.000000     -0.000000      0.000000
     57 O     s       0.000000     -0.000000     -0.000322      0.000000
     58 O     s      -0.000000     -0.000000      0.000322      0.000000
     59 O     s       0.000000      0.000000     -0.000196      0.000000
     60 O     s      -0.000000      0.000000      0.000196      0.000000
     61 O     s       0.000000      0.000000      0.000761      0.000000
     62 O     s       0.000000      0.000000     -0.000761      0.000000
     63 O     s       0.000000     -0.000000     -0.000653      0.000000
     64 O     s      -0.000000     -0.000000      0.000653      0.000000
     65 O     s      -0.001570     -0.000000      0.000000      0.000000
     66 O     s       0.000298     -0.000000     -0.000000      0.000000
     67 O     s       0.000298     -0.000000     -0.000000      0.000000
     68 O     s       0.001766      0.000000      0.000000      0.000000
     69 O     s       0.001570     -0.000000     -0.000000      0.000000
     70 O     s      -0.000298     -0.000000     -0.000000      0.000000
     71 O     s      -0.000298     -0.000000     -0.000000      0.000000
     72 O     s      -0.001766      0.000000      0.000000      0.000000
     73 O     s       0.000000     -0.000322     -0.000000      0.000000
     74 O     s       0.000000     -0.000196      0.000000      0.000000
     75 O     s      -0.000000      0.000322     -0.000000      0.000000
     76 O     s      -0.000000      0.000196     -0.000000      0.000000
     77 O     s       0.000000      0.000761     -0.000000      0.000000
     78 O     s       0.000000     -0.000653     -0.000000      0.000000
     79 O     s       0.000000     -0.000761     -0.000000      0.000000
     80 O     s      -0.000000      0.000653     -0.000000      0.000000
--------------------------------------------------------------------------------
  Maximum abs         0.001947      0.000761      0.000761      0.000000
--------------------------------------------------------------------------------


  Time to end of optimisation =       0.1514 seconds


  Peak dynamic memory used =       3.39 MB 


  Timing analysis for GULP :

--------------------------------------------------------------------------------
  Task / Subroutine                                          Time (Seconds)
--------------------------------------------------------------------------------
  Calculation of reciprocal space energy and derivatives          0.0106
  Calculation of real space energy and derivatives                0.1318
  Calculation and manipulation of Hessian matrix                  0.0023
  Calculation of matrix inversion                                 0.0019
--------------------------------------------------------------------------------
  Total CPU time                                                  0.1514
--------------------------------------------------------------------------------


  Job Finished at 17:31.41  5th April      2026                               

