H107LiMg53
   1.00000000
   13.503017162  -0.000000048  -0.000000000
  -0.000000048   13.503017201   0.000000000
  -0.000000000   0.000000000   9.029981248
  Li  Mg  H
  1  53  107
Direct configuration=     1
   0.999999609   0.999999004   0.000000000
   0.999999805   0.000000477   0.332895969
   0.999999806   0.000000477   0.667104031
   0.999995498   0.333308082   0.999999999
   0.999992659   0.333318748   0.333317907
   0.999992659   0.333318748   0.666682093
   0.999992879   0.666702311   1.000000000
   0.999841417   0.666838993   0.332901160
   0.999841417   0.666838993   0.667098841
   0.333303920   0.000000661   0.000000000
   0.333319030   0.999996074   0.333325276
   0.333319030   0.999996074   0.666674724
   0.333327696   0.333330777   0.000000000
   0.333327882   0.333330212   0.333338603
   0.333327882   0.333330212   0.666661397
   0.333322632   0.666678110   1.000000000
   0.333334662   0.666673955   0.333327224
   0.333334662   0.666673955   0.666672776
   0.666696022   0.999999540   1.000000000
   0.666677410   0.000002457   0.333326459
   0.666677409   0.000002457   0.666673542
   0.666673033   0.333326640   0.000000000
   0.666670591   0.333334415   0.333334529
   0.666670591   0.333334415   0.666665471
   0.666671260   0.666670982   1.000000000
   0.666670587   0.666671126   0.333329167
   0.666670587   0.666671126   0.666670833
   0.166534288   0.166532967   0.166477132
   0.166655589   0.166657029   0.500000000
   0.166534288   0.166532967   0.833522868
   0.166669531   0.499992669   0.166628421
   0.166847286   0.499816822   0.500000000
   0.166669531   0.499992669   0.833371580
   0.166530789   0.833468815   0.166612945
   0.166668332   0.833367795   0.500000000
   0.166530789   0.833468815   0.833387055
   0.500000073   0.166662097   0.166664235
   0.500000323   0.166663838   0.500000000
   0.500000073   0.166662097   0.833335766
   0.500001210   0.499999867   0.166665806
   0.499999629   0.500001063   0.500000000
   0.500001210   0.499999867   0.833334195
   0.499999099   0.833338163   0.166664560
   0.500000950   0.833336896   0.500000000
   0.499999099   0.833338163   0.833335440
   0.833474311   0.166526355   0.166621213
   0.833343688   0.166654351   0.500000000
   0.833474311   0.166526355   0.833378787
   0.833343675   0.499995140   0.166656691
   0.833312667   0.499987282   0.500000000
   0.833343675   0.499995140   0.833343309
   0.833474938   0.833456552   0.166482450
   0.833317571   0.833369083   0.500000000
   0.833474938   0.833456552   0.833517550
   0.101609093   0.101608995   0.000000000
   0.101465692   0.101465447   0.333405150
   0.101465692   0.101465447   0.666594850
   0.101441597   0.434771105   0.000000000
   0.101416518   0.434829027   0.333403504
   0.101416518   0.434829027   0.666596496
   0.101464586   0.768081337   0.000000000
   0.101425187   0.768020035   0.333433880
   0.101425187   0.768020035   0.666566120
   0.434772863   0.101440328   0.000000000
   0.434771351   0.101438230   0.333332394
   0.434771351   0.101438230   0.666667606
   0.434773466   0.434772059   1.000000000
   0.434774933   0.434772499   0.333330712
   0.434774933   0.434772499   0.666669287
   0.434772435   0.768104612   0.000000000
   0.434773319   0.768105936   0.333333031
   0.434773319   0.768105936   0.666666970
   0.768073789   0.101457564   1.000000000
   0.768083840   0.101438261   0.333356384
   0.768083840   0.101438261   0.666643616
   0.768102869   0.434771766   0.000000000
   0.768110933   0.434776676   0.333339014
   0.768110933   0.434776676   0.666660986
   0.768032743   0.768041213   1.000000000
   0.768113431   0.768106107   0.333331701
   0.768113431   0.768106107   0.666668299
   0.231961019   0.231959590   0.000000000
   0.231890614   0.231888156   0.333323683
   0.231890614   0.231888156   0.666676316
   0.231896947   0.565226741   0.000000000
   0.231837160   0.565249711   0.333403647
   0.231837160   0.565249711   0.666596353
   0.231926887   0.898544995   0.000000000
   0.231911828   0.898556856   0.333362523
   0.231911828   0.898556856   0.666637477
   0.565228046   0.231895189   1.000000000
   0.565228008   0.231894743   0.333332616
   0.565228008   0.231894743   0.666667384
   0.565227338   0.565227307   0.000000000
   0.565228012   0.565227769   0.333332443
   0.565228012   0.565227769   0.666667557
   0.565226581   0.898559323   1.000000000
   0.565227803   0.898561321   0.333332625
   0.565227803   0.898561321   0.666667374
   0.898543257   0.231926021   0.000000000
   0.898561871   0.231915260   0.333356562
   0.898561871   0.231915260   0.666643438
   0.898551836   0.565219434   0.000000000
   0.898625031   0.565240608   0.333410420
   0.898625031   0.565240608   0.666589580
   0.898389906   0.898397780   0.000000000
   0.898537364   0.898529976   0.333411709
   0.898537364   0.898529976   0.666588291
   0.065218471   0.268136445   0.166692021
   0.065225440   0.268100284   0.500000000
   0.065218471   0.268136445   0.833307979
   0.065232550   0.601435837   0.166679000
   0.065232550   0.601435837   0.833321000
   0.065357336   0.934643639   0.166966593
   0.065212127   0.934781910   0.500000000
   0.065357336   0.934643639   0.833033407
   0.398558595   0.268103971   0.166666539
   0.398562938   0.268104075   0.500000000
   0.398558595   0.268103971   0.833333461
   0.398561107   0.601438342   0.166666388
   0.398559441   0.601440244   0.500000000
   0.398561107   0.601438342   0.833333612
   0.398560641   0.934772051   0.166667793
   0.398561272   0.934772272   0.500000000
   0.398560641   0.934772051   0.833332207
   0.731898261   0.268100633   0.166665519
   0.731893734   0.268104788   0.500000000
   0.731898261   0.268100633   0.833334481
   0.731894914   0.601441977   0.166667050
   0.731897550   0.601441292   0.500000000
   0.731894914   0.601441977   0.833332950
   0.731863561   0.934781995   0.166691437
   0.731901175   0.934773385   0.500000000
   0.731863561   0.934781995   0.833308563
   0.268136919   0.065218076   0.166692028
   0.268098670   0.065227898   0.500000000
   0.268136920   0.065218076   0.833307972
   0.268103731   0.398558851   0.166665543
   0.268102678   0.398564363   0.500000000
   0.268103731   0.398558851   0.833334457
   0.268104132   0.731896741   0.166663463
   0.268079449   0.731880140   0.500000000
   0.268104132   0.731896741   0.833336537
   0.601439991   0.065228415   0.166668235
   0.601439807   0.065228138   0.500000000
   0.601439991   0.065228415   0.833331766
   0.601438718   0.398560608   0.166666417
   0.601437840   0.398561035   0.500000000
   0.601438718   0.398560608   0.833333583
   0.601440933   0.731896334   0.166666588
   0.601437445   0.731894497   0.500000000
   0.601440933   0.731896334   0.833333412
   0.934641278   0.065358953   0.166967628
   0.934785051   0.065215965   0.500000000
   0.934641278   0.065358953   0.833032372
   0.934773627   0.398557038   0.166665743
   0.934785842   0.398586576   0.500000000
   0.934773627   0.398557038   0.833334257
   0.934774155   0.731871949   0.166698890
   0.934975153   0.731699410   0.500000000
   0.934774155   0.731871949   0.833301110
H107LiMg53
   1.00000000
   13.503222419  -0.000002446   0.000000000
  -0.000002446   13.503222804  -0.000000000
   0.000000000  -0.000000000   9.029763980
  Li  Mg  H
  1  53  107
Direct configuration=     2
   0.999995343   0.999990103   0.999999991
   0.999998901   0.000007920   0.328298810
   0.999998899   0.000007925   0.671701206
   0.999948588   0.333046911   0.999999996
   0.999914812   0.333178565   0.333178140
   0.999914817   0.333178564   0.666821861
   0.999927287   0.667057017   0.999999983
   0.998056482   0.668765740   0.328174875
   0.998056478   0.668765742   0.671825141
   0.333001494   0.000012491   0.999999989
   0.333171274   0.999952413   0.333258268
   0.333171272   0.999952410   0.666741763
   0.333284039   0.333316025   0.999999977
   0.333268127   0.333281914   0.333387645
   0.333268122   0.333281917   0.666612367
   0.333200389   0.666812553   0.999999982
   0.333334957   0.666753417   0.333261758
   0.333334956   0.666753416   0.666738249
   0.666999205   0.999991086   0.999999984
   0.666784350   0.000032584   0.333268355
   0.666784343   0.000032579   0.666731667
   0.666749798   0.333243967   0.999999990
   0.666716424   0.333342540   0.333341282
   0.666716425   0.333342540   0.666658743
   0.666701018   0.666701857   0.999999990
   0.666718273   0.666725801   0.333289044
   0.666718276   0.666725798   0.666710973
   0.165099683   0.165083353   0.164494673
   0.166551577   0.166569584   0.499999995
   0.165099687   0.165083349   0.835505357
   0.166696255   0.499913823   0.166229875
   0.168869482   0.497761158   0.499999985
   0.166696258   0.499913827   0.833770137
   0.165110377   0.834874456   0.166100687
   0.166669900   0.833764480   0.499999987
   0.165110379   0.834874455   0.833899350
   0.500001975   0.166607771   0.166633500
   0.500004368   0.166627040   0.499999982
   0.500001977   0.166607765   0.833366530
   0.500015508   0.499998760   0.166651019
   0.499996395   0.500014221   0.499999985
   0.500015510   0.499998760   0.833349009
   0.499988473   0.833395697   0.166636612
   0.500011636   0.833381737   0.499999994
   0.499988474   0.833395698   0.833363405
   0.834946393   0.165060857   0.166170352
   0.833474854   0.166500917   0.499999985
   0.834946395   0.165060855   0.833829654
   0.833468440   0.499944205   0.166571486
   0.833090747   0.499846337   0.499999987
   0.833468434   0.499944207   0.833428530
   0.834993452   0.834807514   0.164564549
   0.833182340   0.833685846   0.499999990
   0.834993450   0.834807515   0.835435448
   0.103470292   0.103468622   0.999999988
   0.101809943   0.101806706   0.334173061
   0.101809939   0.101806703   0.665826938
   0.101529980   0.434807091   0.999999990
   0.101215046   0.435521990   0.334192736
   0.101215042   0.435521986   0.665807271
   0.101809799   0.767881726   0.999999988
   0.101366142   0.767125420   0.334550651
   0.101366136   0.767125416   0.665449340
   0.434831520   0.101515672   0.999999985
   0.434817001   0.101492596   0.333326190
   0.434816998   0.101492594   0.666673813
   0.434842414   0.434825353   0.999999988
   0.434858120   0.434830391   0.333306856
   0.434858122   0.434830390   0.666693159
   0.434834586   0.768154866   0.999999992
   0.434844911   0.768172087   0.333334633
   0.434844911   0.768172084   0.666665364
   0.767791580   0.101730272   0.999999994
   0.767898701   0.101505545   0.333621762
   0.767898705   0.101505549   0.666378253
   0.768132595   0.434825083   0.999999995
   0.768236752   0.434889646   0.333403282
   0.768236753   0.434889648   0.666596732
   0.767297528   0.767394610   0.999999994
   0.768295454   0.768189208   0.333274769
   0.768295452   0.768189207   0.666725241
   0.232633319   0.232616013   0.999999987
   0.231766815   0.231738838   0.333167466
   0.231766816   0.231738839   0.666832535
   0.231866602   0.565156317   0.999999990
   0.231133274   0.565449959   0.334194422
   0.231133274   0.565449962   0.665805592
   0.232217849   0.898302684   0.999999987
   0.232044695   0.898430275   0.333692598
   0.232044703   0.898430279   0.666307412
   0.565171036   0.231842148   0.999999990
   0.565172478   0.231837249   0.333328867
   0.565172479   0.231837251   0.666671143
   0.565167594   0.565166826   0.999999991
   0.565175517   0.565172259   0.333325703
   0.565175520   0.565172259   0.666674300
   0.565161633   0.898480430   0.999999994
   0.565172820   0.898500953   0.333329604
   0.565172819   0.898500952   0.666670408
   0.898280392   0.232205968   0.999999993
   0.898494794   0.232090131   0.333624134
   0.898494797   0.232090134   0.666375874
   0.898391321   0.565080627   0.999999991
   0.899274002   0.565310244   0.334262196
   0.899274004   0.565310246   0.665737815
   0.896518104   0.896605901   0.999999999
   0.898232211   0.898124959   0.334264754
   0.898232211   0.898124959   0.665735252
   0.065063910   0.268534842   0.166965561
   0.065139730   0.268107449   0.499999994
   0.065063911   0.268534843   0.833034447
   0.065224685   0.601468793   0.166764812
   0.065224684   0.601468793   0.833235207
   0.066653835   0.933353714   0.170246774
   0.064948165   0.934977984   0.499999990
   0.066653838   0.933353716   0.829753238
   0.398471977   0.268148653   0.166666504
   0.398514600   0.268156247   0.499999989
   0.398471975   0.268148654   0.833333518
   0.398496716   0.601493226   0.166660234
   0.398474888   0.601519546   0.499999991
   0.398496712   0.601493228   0.833339787
   0.398491782   0.934827024   0.166674382
   0.398497616   0.934832276   0.499999992
   0.398491781   0.934827027   0.833325616
   0.731922465   0.268064710   0.166651857
   0.731826442   0.268156658   0.499999991
   0.731922464   0.268064713   0.833348142
   0.731844963   0.601530948   0.166674410
   0.731869075   0.601532285   0.499999990
   0.731844964   0.601530949   0.833325594
   0.731471544   0.934939019   0.166959022
   0.731904629   0.934853344   0.499999989
   0.731471544   0.934939021   0.833040989
   0.268537362   0.065057981   0.166964802
   0.268085341   0.065168717   0.499999990
   0.268537365   0.065057980   0.833035196
   0.268142694   0.398478110   0.166659043
   0.268195251   0.398475784   0.499999991
   0.268142695   0.398478106   0.833340970
   0.268105634   0.731904449   0.166626285
   0.267847198   0.731656702   0.499999991
   0.268105635   0.731904449   0.833373723
   0.601514811   0.065179140   0.166678837
   0.601515479   0.065171722   0.499999987
   0.601514810   0.065179141   0.833321176
   0.601498818   0.398493848   0.166659753
   0.601491209   0.398496735   0.499999989
   0.601498822   0.398493846   0.833340244
   0.601520917   0.731856397   0.166666582
   0.601483180   0.731833915   0.499999991
   0.601520918   0.731856398   0.833333418
   0.933332002   0.066670835   0.170257526
   0.935014202   0.064997515   0.499999991
   0.933332001   0.066670834   0.829742468
   0.934845632   0.398449793   0.166649013
   0.935001489   0.398806652   0.499999993
   0.934845631   0.398449794   0.833350984
   0.934807616   0.731609779   0.166936005
   0.937271509   0.729485843   0.499999989
   0.934807619   0.731609771   0.833063991
H107LiMg53
   1.00000000
   13.503243442  -0.000005081   0.000000000
  -0.000005081   13.503243705  -0.000000000
   0.000000000  -0.000000000   9.029751198
  Li  Mg  H
  1  53  107
Direct configuration=     3
   0.999995124   0.999991627   0.999999992
   0.999999703   0.000009932   0.328412500
   0.999999701   0.000009936   0.671587514
   0.999950031   0.333054102   0.999999995
   0.999915715   0.333192120   0.333199753
   0.999915719   0.333192119   0.666800249
   0.999939544   0.667031078   0.999999983
   0.998002882   0.668815957   0.328143437
   0.998002879   0.668815959   0.671856578
   0.333011997   0.000016508   0.999999989
   0.333174235   0.999950892   0.333273346
   0.333174233   0.999950889   0.666726684
   0.333297099   0.333325241   0.999999980
   0.333264520   0.333263382   0.333375279
   0.333264515   0.333263386   0.666624733
   0.333189902   0.666826747   0.999999982
   0.333317419   0.666758278   0.333258755
   0.333317418   0.666758278   0.666741252
   0.666989850   0.999988196   0.999999984
   0.666778955   0.000036075   0.333280280
   0.666778948   0.000036070   0.666719740
   0.666761627   0.333230167   0.999999990
   0.666723723   0.333335556   0.333331844
   0.666723723   0.333335555   0.666668180
   0.666685663   0.666690007   0.999999991
   0.666727186   0.666735902   0.333289788
   0.666727189   0.666735899   0.666710228
   0.165104416   0.165087483   0.164576479
   0.166569657   0.166588666   0.499999995
   0.165104419   0.165087480   0.835423548
   0.166694663   0.499915010   0.166247487
   0.168929056   0.497699446   0.499999986
   0.166694666   0.499915014   0.833752524
   0.165166402   0.834808760   0.166162704
   0.166656679   0.833782724   0.499999987
   0.165166405   0.834808759   0.833837330
   0.500002998   0.166606290   0.166632660
   0.500004532   0.166624635   0.499999986
   0.500003000   0.166606284   0.833367366
   0.500016580   0.499999140   0.166649679
   0.499997116   0.500015874   0.499999985
   0.500016582   0.499999140   0.833350347
   0.499987580   0.833397531   0.166635173
   0.500012129   0.833384512   0.499999994
   0.499987581   0.833397531   0.833364842
   0.834886810   0.165119966   0.166207546
   0.833489930   0.166484804   0.499999984
   0.834886812   0.165119965   0.833792460
   0.833477794   0.499945570   0.166595389
   0.833090125   0.499843900   0.499999988
   0.833477792   0.499945572   0.833404627
   0.834973455   0.834818687   0.164650859
   0.833202298   0.833626814   0.499999989
   0.834973453   0.834818688   0.835349137
   0.103433211   0.103431103   0.999999988
   0.101801511   0.101797910   0.334163807
   0.101801508   0.101797908   0.665836194
   0.101526148   0.434799498   0.999999990
   0.101193057   0.435543900   0.334218618
   0.101193054   0.435543899   0.665781388
   0.101813809   0.767883577   0.999999989
   0.101389974   0.767094882   0.334576402
   0.101389968   0.767094878   0.665423591
   0.434827552   0.101512407   0.999999985
   0.434815872   0.101490685   0.333326662
   0.434815868   0.101490683   0.666673341
   0.434841962   0.434824466   0.999999988
   0.434855564   0.434828852   0.333307461
   0.434855565   0.434828852   0.666692553
   0.434837530   0.768155194   0.999999993
   0.434847590   0.768173744   0.333335668
   0.434847591   0.768173741   0.666664331
   0.767792068   0.101736898   0.999999994
   0.767887389   0.101515433   0.333635395
   0.767887393   0.101515437   0.666364621
   0.768131638   0.434826747   0.999999995
   0.768243374   0.434896751   0.333402458
   0.768243375   0.434896752   0.666597555
   0.767290671   0.767386005   0.999999994
   0.768327167   0.768202000   0.333237604
   0.768327165   0.768201999   0.666762407
   0.232643504   0.232625775   0.999999987
   0.231748140   0.231721234   0.333119127
   0.231748140   0.231721234   0.666880874
   0.231869354   0.565153915   0.999999990
   0.231109435   0.565468738   0.334220156
   0.231109434   0.565468738   0.665779857
   0.232218273   0.898298058   0.999999988
   0.232051629   0.898414934   0.333704971
   0.232051636   0.898414938   0.666295040
   0.565168064   0.231841259   0.999999990
   0.565171162   0.231836599   0.333329060
   0.565171162   0.231836601   0.666670948
   0.565168551   0.565167399   0.999999991
   0.565177091   0.565173428   0.333325024
   0.565177094   0.565173429   0.666674979
   0.565165363   0.898484004   0.999999995
   0.565173836   0.898501865   0.333330577
   0.565173836   0.898501864   0.666669435
   0.898274582   0.232205139   0.999999993
   0.898483900   0.232101139   0.333638174
   0.898483903   0.232101143   0.666361834
   0.898393788   0.565087158   0.999999991
   0.899295715   0.565298498   0.334275546
   0.899295714   0.565298498   0.665724465
   0.896555038   0.896639150   0.999999999
   0.898247049   0.898120519   0.334268264
   0.898247049   0.898120519   0.665731743
   0.065066284   0.268539125   0.166968738
   0.065136460   0.268111451   0.499999993
   0.065066285   0.268539125   0.833031271
   0.065220899   0.601471771   0.166724895
   0.065220897   0.601471771   0.833275124
   0.066609467   0.933393854   0.170304119
   0.064916963   0.935006136   0.499999991
   0.066609469   0.933393857   0.829695892
   0.398476296   0.268150345   0.166671393
   0.398510949   0.268162623   0.499999989
   0.398476294   0.268150346   0.833328627
   0.398495002   0.601491555   0.166660500
   0.398472024   0.601520452   0.499999991
   0.398494998   0.601491557   0.833339519
   0.398491917   0.934827266   0.166672762
   0.398496354   0.934834908   0.499999992
   0.398491915   0.934827269   0.833327237
   0.731956728   0.268030681   0.166654155
   0.731827174   0.268156563   0.499999992
   0.731956726   0.268030684   0.833345844
   0.731849408   0.601523378   0.166681165
   0.731867425   0.601534093   0.499999991
   0.731849408   0.601523380   0.833318839
   0.731472751   0.934934846   0.166962334
   0.731897541   0.934861630   0.499999989
   0.731472751   0.934934848   0.833037677
   0.268538646   0.065059121   0.166967079
   0.268086363   0.065165100   0.499999990
   0.268538649   0.065059119   0.833032920
   0.268141548   0.398485225   0.166668513
   0.268267191   0.398406397   0.499999991
   0.268141548   0.398485223   0.833331498
   0.268071142   0.731938749   0.166627292
   0.267837432   0.731648839   0.499999990
   0.268071143   0.731938749   0.833372716
   0.601513951   0.065179428   0.166676393
   0.601516688   0.065168540   0.499999987
   0.601513950   0.065179429   0.833323621
   0.601498319   0.398494972   0.166659173
   0.601492460   0.398496838   0.499999989
   0.601498321   0.398494971   0.833340826
   0.601515386   0.731855911   0.166671307
   0.601481462   0.731833128   0.499999990
   0.601515387   0.731855912   0.833328693
   0.933379417   0.066623333   0.170313086
   0.935041395   0.064970146   0.499999991
   0.933379416   0.066623332   0.829686909
   0.934845906   0.398450399   0.166646183
   0.935012502   0.398815016   0.499999992
   0.934845904   0.398450401   0.833353814
   0.934751357   0.731662375   0.166797729
   0.937325332   0.729432381   0.499999989
   0.934751360   0.731662368   0.833202267
H107LiMg53
   1.00000000
   13.503670972  -0.000052996   0.000000000
  -0.000052996   13.503669132  -0.000000000
   0.000000000  -0.000000000   9.029469865
  Li  Mg  H
  1  53  107
Direct configuration=     4
   0.999990197   0.000016462   1.000000000
   0.000012850   0.000045750   0.329350581
   0.000012840   0.000045744   0.670649421
   0.999963370   0.333114089   0.000000011
   0.999910801   0.333400831   0.333535165
   0.999910787   0.333400828   0.666464827
   0.000143565   0.666662756   0.000000026
   0.996646706   0.670145285   0.326457081
   0.996646711   0.670145292   0.673542906
   0.333119306   0.000086039   0.000000012
   0.333193306   0.999912826   0.333511905
   0.333193308   0.999912824   0.666488069
   0.333515477   0.333484902   0.000000016
   0.333199989   0.332914294   0.333149774
   0.333199984   0.332914303   0.666850212
   0.332972683   0.667110638   0.000000021
   0.333006688   0.666867128   0.333194474
   0.333006693   0.666867128   0.666805478
   0.666901349   0.999938177   0.000000007
   0.666706243   0.000104447   0.333471373
   0.666706244   0.000104446   0.666528620
   0.666993115   0.332965290   0.000000015
   0.666865996   0.333214051   0.333172251
   0.666865993   0.333214042   0.666827691
   0.666427190   0.666490615   0.000000015
   0.666895841   0.666927076   0.333286442
   0.666895848   0.666927072   0.666713548
   0.164848284   0.164818575   0.165490704
   0.166858237   0.166898937   0.500000019
   0.164848287   0.164818574   0.834509258
   0.166667858   0.499919660   0.166463070
   0.170456193   0.496126349   0.500000020
   0.166667863   0.499919661   0.833536920
   0.165772653   0.834025587   0.167115536
   0.166423396   0.834194912   0.500000019
   0.165772643   0.834025594   0.832884425
   0.500019901   0.166566305   0.166611590
   0.500003998   0.166577553   0.500000028
   0.500019907   0.166566300   0.833388412
   0.500037692   0.500005711   0.166629048
   0.500008574   0.500047854   0.500000010
   0.500037701   0.500005718   0.833370946
   0.499970462   0.833444543   0.166604588
   0.500023133   0.833444214   0.500000030
   0.499970463   0.833444547   0.833395372
   0.834230834   0.165769573   0.166750275
   0.833786730   0.166164754   0.500000009
   0.834230834   0.165769569   0.833249729
   0.833674963   0.499960556   0.166984832
   0.833030383   0.499768444   0.499999995
   0.833674964   0.499960563   0.833015154
   0.834963696   0.835351878   0.165649757
   0.833530834   0.832663569   0.500000013
   0.834963695   0.835351880   0.834350195
   0.103224702   0.103214641   0.000000015
   0.101736622   0.101725507   0.334206431
   0.101736631   0.101725514   0.665793567
   0.101484034   0.434677845   0.000000004
   0.100760178   0.436092791   0.334858609
   0.100760196   0.436092818   0.665141390
   0.101966907   0.767875162   0.000000010
   0.101797021   0.766344356   0.335284636
   0.101797027   0.766344362   0.664715378
   0.434774384   0.101475322   0.000000004
   0.434806816   0.101469360   0.333334742
   0.434806812   0.101469361   0.666665236
   0.434854173   0.434825131   0.000000010
   0.434827287   0.434813019   0.333309919
   0.434827292   0.434813018   0.666690089
   0.434900720   0.768171286   0.000000019
   0.434905744   0.768214961   0.333352364
   0.434905751   0.768214966   0.666647634
   0.767737540   0.101914820   0.000000001
   0.767643462   0.101706624   0.333942866
   0.767643464   0.101706621   0.666057145
   0.768124026   0.434867713   0.000000012
   0.768386267   0.435042965   0.333403029
   0.768386269   0.435042974   0.666596984
   0.767006731   0.767104272   0.000000011
   0.768925001   0.768430094   0.332583609
   0.768925002   0.768430096   0.667416391
   0.232959618   0.232930575   0.000000011
   0.231396823   0.231383103   0.332237370
   0.231396818   0.231383094   0.667762624
   0.231911843   0.565096659   0.000000005
   0.230524745   0.565846750   0.334854660
   0.230524737   0.565846733   0.665145336
   0.232287380   0.898158240   0.000000018
   0.232208900   0.898115755   0.334009418
   0.232208897   0.898115751   0.665990584
   0.565105818   0.231814974   0.000000011
   0.565137541   0.231812336   0.333329311
   0.565137538   0.231812336   0.666670688
   0.565167088   0.565159111   0.000000004
   0.565196500   0.565184689   0.333311338
   0.565196491   0.565184664   0.666688649
   0.565213516   0.898527019   0.000000015
   0.565179448   0.898504659   0.333346678
   0.565179439   0.898504651   0.666653308
   0.898112408   0.232251738   0.000000005
   0.898277169   0.232340242   0.333955264
   0.898277171   0.232340242   0.666044720
   0.898394552   0.565162123   0.000000006
   0.899831281   0.565107193   0.334698356
   0.899831264   0.565107184   0.665301647
   0.896754513   0.896809999   0.000000022
   0.898442794   0.897939742   0.334560275
   0.898442793   0.897939740   0.665439718
   0.065072042   0.268708036   0.167095034
   0.065065463   0.268181756   0.500000004
   0.065072041   0.268708036   0.832904965
   0.065137747   0.601546369   0.166053307
   0.065137749   0.601546366   0.833946678
   0.066182746   0.933745111   0.172077773
   0.064325323   0.935526699   0.500000010
   0.066182745   0.933745113   0.827922216
   0.398535765   0.268190069   0.166755504
   0.398445261   0.268268918   0.500000001
   0.398535767   0.268190064   0.833244479
   0.398435920   0.601486462   0.166664012
   0.398398905   0.601554660   0.500000010
   0.398435918   0.601486460   0.833335989
   0.398478879   0.934843838   0.166648641
   0.398463169   0.934892804   0.500000013
   0.398478882   0.934843837   0.833351353
   0.732541037   0.267447702   0.166693380
   0.731830566   0.268162123   0.500000014
   0.732541038   0.267447698   0.833306613
   0.731915298   0.601409905   0.166806475
   0.731836767   0.601592036   0.500000009
   0.731915294   0.601409907   0.833193509
   0.731397844   0.934904349   0.167087441
   0.731793462   0.935004708   0.500000002
   0.731397844   0.934904351   0.832912561
   0.268652986   0.065041368   0.167074070
   0.268096868   0.065091274   0.500000010
   0.268652974   0.065041379   0.832925921
   0.268130614   0.398594651   0.166840320
   0.269546678   0.397165127   0.500000010
   0.268130612   0.398594658   0.833159674
   0.267488651   0.732519427   0.166639377
   0.267606025   0.731465572   0.500000011
   0.267488651   0.732519425   0.833360619
   0.601516630   0.065172542   0.166637263
   0.601547394   0.065104889   0.499999995
   0.601516634   0.065172543   0.833362741
   0.601515576   0.398487434   0.166644504
   0.601529724   0.398483192   0.500000012
   0.601515567   0.398487449   0.833355486
   0.601435634   0.731836527   0.166757379
   0.601467210   0.731808236   0.499999995
   0.601435634   0.731836531   0.833242615
   0.933854641   0.066145842   0.172053086
   0.935554722   0.064456168   0.500000004
   0.933854639   0.066145840   0.827946900
   0.934867648   0.398436442   0.166596196
   0.935253113   0.399017921   0.500000005
   0.934867683   0.398436422   0.833403785
   0.933783732   0.732511861   0.164410830
   0.938775157   0.728006432   0.499999996
   0.933783732   0.732511859   0.835589161
H107LiMg53
   1.00000000
   13.503767879  -0.000063311   0.000000000
  -0.000063311   13.503765614  -0.000000000
   0.000000000  -0.000000000   9.029404719
  Li  Mg  H
  1  53  107
Direct configuration=     5
   0.999988901   0.000020457   0.000000001
   0.000014197   0.000050342   0.329333842
   0.000014186   0.000050337   0.670666158
   0.999962191   0.333106151   0.000000011
   0.999903331   0.333435447   0.333571958
   0.999903317   0.333435443   0.666428033
   0.000181017   0.666620811   0.000000026
   0.996345162   0.670448128   0.325932682
   0.996345169   0.670448136   0.674067304
   0.333115964   0.000093205   0.000000013
   0.333192283   0.999902869   0.333536364
   0.333192285   0.999902868   0.666463612
   0.333549247   0.333513050   0.000000021
   0.333203859   0.332835347   0.333086598
   0.333203856   0.332835357   0.666913391
   0.332924199   0.667169174   0.000000023
   0.332949220   0.666895546   0.333185943
   0.332949227   0.666895547   0.666814012
   0.666905559   0.999933265   0.000000011
   0.666694513   0.000117503   0.333496276
   0.666694515   0.000117501   0.666503711
   0.667043840   0.332912170   0.000000016
   0.666896815   0.333192462   0.333151408
   0.666896811   0.333192450   0.666848537
   0.666390493   0.666460249   0.000000018
   0.666928172   0.666963494   0.333275355
   0.666928178   0.666963488   0.666724632
   0.164739049   0.164708279   0.165492540
   0.166897435   0.166942828   0.500000015