********************************************************************************
*                       GENERAL UTILITY LATTICE PROGRAM                        *
*                                 Julian Gale                                  *
*                       Curtin Institute for Computation                       *
*                    School of Molecular and Life Sciences                     *
*                    Curtin University, Western Australia                      *
********************************************************************************
* Version = 6.4.0 * Last modified =  22nd December 2025                        *
********************************************************************************
*  optimise     - perform optimisation run                                     *
*  conp         - constant pressure calculation                                *
********************************************************************************
*  Al/Fe substitutions in LaFeO3  perovskite - configuration 2                 *
********************************************************************************


  Job Started  at 17:31.34  5th April      2026                               

  Number of CPUs =     1


  Total number of configurations input =      1

********************************************************************************
*  Input for Configuration =   1                                               *
********************************************************************************

  Formula = La8Al2Fe6O24

  Number of irreducible atoms/shells =      80


  Total number atoms/shells =      80

  Dimensionality = 3               :  Bulk   



  Cartesian lattice vectors (Angstroms) :

        7.400000    0.000000    0.000000
        0.000000    7.400000    0.000000
        0.000000    0.000000    7.400000

  Cell parameters (Angstroms/Degrees):

  a =       7.4000    alpha =  90.0000
  b =       7.4000    beta  =  90.0000
  c =       7.4000    gamma =  90.0000

  Initial cell volume =         405.224000 Angs**3

  Temperature of configuration =   0.00     K 

  Pressure of configuration =         0.000 GPa 

  Fractional coordinates of asymmetric unit :

--------------------------------------------------------------------------------
   No.  Atomic       x           y          z         Charge      Occupancy
        Label      (Frac)      (Frac)     (Frac)        (e)         (Frac)  
--------------------------------------------------------------------------------
      1 La    c    0.000000    0.000000    0.000000     5.14900    1.000000    
      2 La    c    0.000000 *  0.000000 *  0.500000 *   5.14900    1.000000    
      3 La    c    0.000000 *  0.500000 *  0.000000 *   5.14900    1.000000    
      4 La    c    0.000000 *  0.500000 *  0.500000 *   5.14900    1.000000    
      5 La    c    0.500000 *  0.000000 *  0.000000 *   5.14900    1.000000    
      6 La    c    0.500000 *  0.000000 *  0.500000 *   5.14900    1.000000    
      7 La    c    0.500000 *  0.500000 *  0.000000 *   5.14900    1.000000    
      8 La    c    0.500000 *  0.500000 *  0.500000 *   5.14900    1.000000    
      9 Al    c    0.250000 *  0.250000 *  0.250000 *   0.04300    1.000000    
     10 Fe    c    0.250000 *  0.250000 *  0.750000 *   1.97100    1.000000    
     11 Fe    c    0.250000 *  0.750000 *  0.250000 *   1.97100    1.000000    
     12 Al    c    0.250000 *  0.750000 *  0.750000 *   0.04300    1.000000    
     13 Fe    c    0.750000 *  0.250000 *  0.250000 *   1.97100    1.000000    
     14 Fe    c    0.750000 *  0.250000 *  0.750000 *   1.97100    1.000000    
     15 Fe    c    0.750000 *  0.750000 *  0.250000 *   1.97100    1.000000    
     16 Fe    c    0.750000 *  0.750000 *  0.750000 *   1.97100    1.000000    
     17 O     c    0.250000 *  0.250000 *  0.000000 *   0.51300    1.000000    
     18 O     c    0.250000 *  0.250000 *  0.500000 *   0.51300    1.000000    
     19 O     c    0.250000 *  0.750000 *  0.000000 *   0.51300    1.000000    
     20 O     c    0.250000 *  0.750000 *  0.500000 *   0.51300    1.000000    
     21 O     c    0.750000 *  0.250000 *  0.000000 *   0.51300    1.000000    
     22 O     c    0.750000 *  0.250000 *  0.500000 *   0.51300    1.000000    
     23 O     c    0.750000 *  0.750000 *  0.000000 *   0.51300    1.000000    
     24 O     c    0.750000 *  0.750000 *  0.500000 *   0.51300    1.000000    
     25 O     c    0.000000 *  0.250000 *  0.250000 *   0.51300    1.000000    
     26 O     c    0.000000 *  0.250000 *  0.750000 *   0.51300    1.000000    
     27 O     c    0.000000 *  0.750000 *  0.250000 *   0.51300    1.000000    
     28 O     c    0.000000 *  0.750000 *  0.750000 *   0.51300    1.000000    
     29 O     c    0.500000 *  0.250000 *  0.250000 *   0.51300    1.000000    
     30 O     c    0.500000 *  0.250000 *  0.750000 *   0.51300    1.000000    
     31 O     c    0.500000 *  0.750000 *  0.250000 *   0.51300    1.000000    
     32 O     c    0.500000 *  0.750000 *  0.750000 *   0.51300    1.000000    
     33 O     c    0.250000 *  0.000000 *  0.250000 *   0.51300    1.000000    
     34 O     c    0.250000 *  0.000000 *  0.750000 *   0.51300    1.000000    
     35 O     c    0.250000 *  0.500000 *  0.250000 *   0.51300    1.000000    
     36 O     c    0.250000 *  0.500000 *  0.750000 *   0.51300    1.000000    
     37 O     c    0.750000 *  0.000000 *  0.250000 *   0.51300    1.000000    
     38 O     c    0.750000 *  0.000000 *  0.750000 *   0.51300    1.000000    
     39 O     c    0.750000 *  0.500000 *  0.250000 *   0.51300    1.000000    
     40 O     c    0.750000 *  0.500000 *  0.750000 *   0.51300    1.000000    
     41 La    s    0.000000 *  0.000000 *  0.000000 *  -2.14900    1.000000    
     42 La    s    0.000000 *  0.000000 *  0.500000 *  -2.14900    1.000000    
     43 La    s    0.000000 *  0.500000 *  0.000000 *  -2.14900    1.000000    
     44 La    s    0.000000 *  0.500000 *  0.500000 *  -2.14900    1.000000    
     45 La    s    0.500000 *  0.000000 *  0.000000 *  -2.14900    1.000000    
     46 La    s    0.500000 *  0.000000 *  0.500000 *  -2.14900    1.000000    
     47 La    s    0.500000 *  0.500000 *  0.000000 *  -2.14900    1.000000    
     48 La    s    0.500000 *  0.500000 *  0.500000 *  -2.14900    1.000000    
     49 Al    s    0.250000 *  0.250000 *  0.250000 *   2.95700    1.000000    
     50 Fe    s    0.250000 *  0.250000 *  0.750000 *   1.02900    1.000000    
     51 Fe    s    0.250000 *  0.750000 *  0.250000 *   1.02900    1.000000    
     52 Al    s    0.250000 *  0.750000 *  0.750000 *   2.95700    1.000000    
     53 Fe    s    0.750000 *  0.250000 *  0.250000 *   1.02900    1.000000    
     54 Fe    s    0.750000 *  0.250000 *  0.750000 *   1.02900    1.000000    
     55 Fe    s    0.750000 *  0.750000 *  0.250000 *   1.02900    1.000000    
     56 Fe    s    0.750000 *  0.750000 *  0.750000 *   1.02900    1.000000    
     57 O     s    0.250000 *  0.250000 *  0.000000 *  -2.51300    1.000000    
     58 O     s    0.250000 *  0.250000 *  0.500000 *  -2.51300    1.000000    
     59 O     s    0.250000 *  0.750000 *  0.000000 *  -2.51300    1.000000    
     60 O     s    0.250000 *  0.750000 *  0.500000 *  -2.51300    1.000000    
     61 O     s    0.750000 *  0.250000 *  0.000000 *  -2.51300    1.000000    
     62 O     s    0.750000 *  0.250000 *  0.500000 *  -2.51300    1.000000    
     63 O     s    0.750000 *  0.750000 *  0.000000 *  -2.51300    1.000000    
     64 O     s    0.750000 *  0.750000 *  0.500000 *  -2.51300    1.000000    
     65 O     s    0.000000 *  0.250000 *  0.250000 *  -2.51300    1.000000    
     66 O     s    0.000000 *  0.250000 *  0.750000 *  -2.51300    1.000000    
     67 O     s    0.000000 *  0.750000 *  0.250000 *  -2.51300    1.000000    
     68 O     s    0.000000 *  0.750000 *  0.750000 *  -2.51300    1.000000    
     69 O     s    0.500000 *  0.250000 *  0.250000 *  -2.51300    1.000000    
     70 O     s    0.500000 *  0.250000 *  0.750000 *  -2.51300    1.000000    
     71 O     s    0.500000 *  0.750000 *  0.250000 *  -2.51300    1.000000    
     72 O     s    0.500000 *  0.750000 *  0.750000 *  -2.51300    1.000000    
     73 O     s    0.250000 *  0.000000 *  0.250000 *  -2.51300    1.000000    
     74 O     s    0.250000 *  0.000000 *  0.750000 *  -2.51300    1.000000    
     75 O     s    0.250000 *  0.500000 *  0.250000 *  -2.51300    1.000000    
     76 O     s    0.250000 *  0.500000 *  0.750000 *  -2.51300    1.000000    
     77 O     s    0.750000 *  0.000000 *  0.250000 *  -2.51300    1.000000    
     78 O     s    0.750000 *  0.000000 *  0.750000 *  -2.51300    1.000000    
     79 O     s    0.750000 *  0.500000 *  0.250000 *  -2.51300    1.000000    
     80 O     s    0.750000 *  0.500000 *  0.750000 *  -2.51300    1.000000    
--------------------------------------------------------------------------------



********************************************************************************
*  General input information                                                   *
********************************************************************************

  Species output for all configurations : 

--------------------------------------------------------------------------------
  Species    Type    Atomic    Atomic    Charge       Radii (Angs)     Library
                     Number     Mass       (e)     Cova   Ionic  VDW   Symbol
--------------------------------------------------------------------------------
    Fe       Core       26      55.85   1.971000   1.340  0.000  2.000          
    Fe       Shell      26       0.00   1.029000   1.340  0.000  2.000          
    Al       Core       13      26.98   0.043000   1.350  0.000  2.050          
    Al       Shell      13       0.00   2.957000   1.350  0.000  2.050          
    La       Core       57     138.91   5.149000   1.870  0.000  2.790          
    La       Shell      57       0.00  -2.149000   1.870  0.000  2.790          
    O        Core        8      16.00   0.513000   0.730  0.000  1.360          
    O        Shell       8       0.00  -2.513000   0.730  0.000  1.360          
--------------------------------------------------------------------------------


  Lattice summation method               =    Ewald          (3-D)
                                         =    Parry          (2-D)
                                         =    Saunders et al (1-D)
  Accuracy factor for lattice sums       =   12.000


  Analytic derivatives to be used

  Time limit = Infinity

  Maximum range for interatomic potentials =    100000.000000 Angstroms

  General interatomic potentials :

--------------------------------------------------------------------------------
Atom  Types   Potential      Parameter       Value         Units   Cutoffs(Ang)
  1     2                                                            Min /  Max 
--------------------------------------------------------------------------------
O    s Fe   s Buckingham    Buckingham A     3219.3350    eV        0.000 10.000
                            Buckingham rho  0.26410000    Ang       
                            Buckingham C     0.0000000    eV*Ang^6  
--------------------------------------------------------------------------------
O    s Al   s Buckingham    Buckingham A     2409.5050    eV        0.000 10.000
                            Buckingham rho  0.26490000    Ang       
                            Buckingham C     0.0000000    eV*Ang^6  
--------------------------------------------------------------------------------
O    s La   s Buckingham    Buckingham A     5436.8270    eV        0.000 10.000
                            Buckingham rho  0.29390000    Ang       
                            Buckingham C     0.0000000    eV*Ang^6  
--------------------------------------------------------------------------------
O    s O    s Buckingham    Buckingham A     25.410000    eV        0.000 12.000
                            Buckingham rho  0.69370000    Ang       
                            Buckingham C     32.320000    eV*Ang^6  
--------------------------------------------------------------------------------
Fe   c Fe   s Spring (c-s)  Spring k 2       179.58000    eV*Ang^-2 0.000  0.800
                            Spring k 4       0.0000000    eV*Ang^-4 
--------------------------------------------------------------------------------
Al   c Al   s Spring (c-s)  Spring k 2       403.98000    eV*Ang^-2 0.000  0.800
                            Spring k 4       0.0000000    eV*Ang^-4 
--------------------------------------------------------------------------------
La   c La   s Spring (c-s)  Spring k 2       173.90000    eV*Ang^-2 0.000  0.800
                            Spring k 4       0.0000000    eV*Ang^-4 
--------------------------------------------------------------------------------
O    c O    s Spring (c-s)  Spring k 2       20.530000    eV*Ang^-2 0.000  0.800
                            Spring k 4       0.0000000    eV*Ang^-4 
--------------------------------------------------------------------------------

********************************************************************************
*  Output for configuration   1                                                *
********************************************************************************


  Components of energy : 

--------------------------------------------------------------------------------
  Interatomic potentials     =         267.29800011 eV    
  Monopole - monopole (real) =        -714.63043649 eV    
  Monopole - monopole (recip)=        -672.57146413 eV    
  Monopole - monopole (total)=       -1387.20190062 eV    
--------------------------------------------------------------------------------
  Total lattice energy       =       -1119.90390050 eV    
--------------------------------------------------------------------------------
  Total lattice energy       =         -108053.6071 kJ/(mole unit cells)
--------------------------------------------------------------------------------


  Number of variables =      243

  Maximum number of calculations  =          1000
  Maximum Hessian update interval =            10
  Maximum step size               =   1.000000000
  Maximum parameter tolerance     =   0.000010000
  Maximum function  tolerance     =   0.000010000
  Maximum gradient  tolerance     =   0.001000000
  Maximum gradient  component     =   0.010000000

  Symmetry not applied to optimisation

  Cell parameters to be optimised using strains

  Newton-Raphson optimiser to be used

  BFGS hessian update to be used

  Hessian eigenvalue shifts to be used to ensure all values are positive

  Lower half triangular hessian to be used

  Start of bulk optimisation :

  Cycle:      0 Energy:     -1119.903901  Gnorm:      1.081724  CPU:    0.038
  ** Hessian lowest eigenvalue is negative =  -1.727E+01
  ** Hessian calculated **
  Cycle:      1 Energy:     -1130.918024  Gnorm:      0.048866  CPU:    0.067
  ** Hessian lowest eigenvalue is negative =  -4.334E+01
  ** Hessian calculated **
  Cycle:      2 Energy:     -1130.949354  Gnorm:      0.001940  CPU:    0.122
  Cycle:      3 Energy:     -1130.973624  Gnorm:      0.015383  CPU:    0.165
  Cycle:      4 Energy:     -1131.057040  Gnorm:      0.053848  CPU:    0.202
  Cycle:      5 Energy:     -1131.073371  Gnorm:      0.083432  CPU:    0.222
  Cycle:      6 Energy:     -1131.075106  Gnorm:      0.081402  CPU:    0.246
  Cycle:      7 Energy:     -1131.076132  Gnorm:      0.087210  CPU:    0.275
  Cycle:      8 Energy:     -1131.080141  Gnorm:      0.094407  CPU:    0.303
  Cycle:      9 Energy:     -1131.086866  Gnorm:      0.100198  CPU:    0.332
  Cycle:     10 Energy:     -1131.095635  Gnorm:      0.102680  CPU:    0.357
  Cycle:     11 Energy:     -1131.114345  Gnorm:      0.100386  CPU:    0.382
  ** Hessian lowest eigenvalue is negative =  -2.258E+01
  ** Hessian calculated **
  Cycle:     12 Energy:     -1131.215724  Gnorm:      0.018838  CPU:    0.438
  Cycle:     13 Energy:     -1131.221750  Gnorm:      0.007090  CPU:    0.458
  Cycle:     14 Energy:     -1131.224000  Gnorm:      0.004907  CPU:    0.478
  Cycle:     15 Energy:     -1131.224834  Gnorm:      0.005959  CPU:    0.503
  Cycle:     16 Energy:     -1131.241451  Gnorm:      0.042803  CPU:    0.544
  Cycle:     17 Energy:     -1131.241544  Gnorm:      0.046243  CPU:    0.577
  Cycle:     18 Energy:     -1131.241587  Gnorm:      0.046337  CPU:    0.602
  Cycle:     19 Energy:     -1131.259022  Gnorm:      0.054831  CPU:    0.635
  Cycle:     20 Energy:     -1131.278242  Gnorm:      0.056811  CPU:    0.659
  Cycle:     21 Energy:     -1131.305377  Gnorm:      0.038956  CPU:    0.683
  ** Hessian lowest eigenvalue is negative =  -8.807E+00
  ** Hessian calculated **
  Cycle:     22 Energy:     -1131.334053  Gnorm:      0.016219  CPU:    0.739
  Cycle:     23 Energy:     -1131.338401  Gnorm:      0.009305  CPU:    0.759
  Cycle:     24 Energy:     -1131.340353  Gnorm:      0.007429  CPU:    0.784
  Cycle:     25 Energy:     -1131.341271  Gnorm:      0.007248  CPU:    0.804
  Cycle:     26 Energy:     -1131.342143  Gnorm:      0.005173  CPU:    0.825
  Cycle:     27 Energy:     -1131.342977  Gnorm:      0.004484  CPU:    0.849
  Cycle:     28 Energy:     -1131.343129  Gnorm:      0.005321  CPU:    0.870
  Cycle:     29 Energy:     -1131.343621  Gnorm:      0.004418  CPU:    0.894
  Cycle:     30 Energy:     -1131.344030  Gnorm:      0.002905  CPU:    0.914
  Cycle:     31 Energy:     -1131.344198  Gnorm:      0.002622  CPU:    0.935
  ** Hessian lowest eigenvalue is negative =  -1.423E+01
  ** Hessian calculated **
  Cycle:     32 Energy:     -1131.355798  Gnorm:      0.006549  CPU:    1.008
  Cycle:     33 Energy:     -1131.379842  Gnorm:      0.029569  CPU:    1.041
  Cycle:     34 Energy:     -1131.386477  Gnorm:      0.041272  CPU:    1.061
  Cycle:     35 Energy:     -1131.408301  Gnorm:      0.035032  CPU:    1.086
  Cycle:     36 Energy:     -1131.417216  Gnorm:      0.014000  CPU:    1.106
  Cycle:     37 Energy:     -1131.421246  Gnorm:      0.029777  CPU:    1.130
  Cycle:     38 Energy:     -1131.425193  Gnorm:      0.009714  CPU:    1.155
  Cycle:     39 Energy:     -1131.427346  Gnorm:      0.015546  CPU:    1.175
  Cycle:     40 Energy:     -1131.428819  Gnorm:      0.007335  CPU:    1.200
  Cycle:     41 Energy:     -1131.429570  Gnorm:      0.006635  CPU:    1.220
  ** Hessian calculated **
  Cycle:     42 Energy:     -1131.430245  Gnorm:      0.000341  CPU:    1.276


  **** Optimisation achieved ****


  Final energy =   -1131.43024566 eV      
  Final Gnorm  =       0.00000673

  Components of energy : 

--------------------------------------------------------------------------------
  Interatomic potentials     =         186.51352459 eV    
  Monopole - monopole (real) =         -45.56619971 eV    
  Monopole - monopole (recip)=       -1272.37757053 eV    
  Monopole - monopole (total)=       -1317.94377025 eV    
--------------------------------------------------------------------------------
  Total lattice energy       =       -1131.43024566 eV    
--------------------------------------------------------------------------------
  Total lattice energy       =         -109165.7232 kJ/(mole unit cells)
--------------------------------------------------------------------------------

  Final fractional coordinates of atoms :

--------------------------------------------------------------------------------
   No.  Atomic        x           y          z          Radius
        Label       (Frac)      (Frac)     (Frac)       (Angs) 
--------------------------------------------------------------------------------
     1  La    c     0.000000    0.000000    0.000000    0.000000
     2  La    c     0.977416    0.027651    0.499723    0.000000
     3  La    c     0.002134    0.502338    0.004816    0.000000
     4  La    c     0.974982    0.526220    0.504965    0.000000
     5  La    c     0.496211    0.000703    0.999223    0.000000
     6  La    c     0.469059    0.024584    0.499371    0.000000
     7  La    c     0.493777    0.499272    0.004464    0.000000
     8  La    c     0.471193    0.526923    0.504188    0.000000
     9  Al    c     0.235597    0.263461    0.252093    0.000000
    10  Fe    c     0.235597    0.263461    0.752093    0.000000
    11  Fe    c     0.235597    0.763461    0.252093    0.000000
    12  Al    c     0.235597    0.763461    0.752093    0.000000
    13  Fe    c     0.735597    0.263461    0.252093    0.000000
    14  Fe    c     0.735597    0.263461    0.752093    0.000000
    15  Fe    c     0.735597    0.763461    0.252093    0.000000
    16  Fe    c     0.735597    0.763461    0.752093    0.000000
    17  O     c     0.211903    0.252516    0.006544    0.000000
    18  O     c     0.259290    0.274405    0.497643    0.000000
    19  O     c     0.252427    0.784257    0.997678    0.000000
    20  O     c     0.218766    0.742665    0.506508    0.000000
    21  O     c     0.749254    0.296356    0.002378    0.000000
    22  O     c     0.721939    0.230565    0.501809    0.000000
    23  O     c     0.706191    0.743381    0.001790    0.000000
    24  O     c     0.765002    0.783541    0.502397    0.000000
    25  O     c     0.991469    0.287352    0.272943    0.000000
    26  O     c     0.986644    0.286784    0.731684    0.000000
    27  O     c     0.986538    0.739387    0.229154    0.000000
    28  O     c     0.991314    0.739276    0.774740    0.000000
    29  O     c     0.479724    0.239569    0.231242    0.000000
    30  O     c     0.484549    0.240137    0.772502    0.000000
    31  O     c     0.484656    0.787536    0.275032    0.000000
    32  O     c     0.479879    0.787645    0.729446    0.000000
    33  O     c     0.212408    0.017574    0.269156    0.000000
    34  O     c     0.212024    0.009121    0.735722    0.000000
    35  O     c     0.258786    0.509347    0.235030    0.000000
    36  O     c     0.259170    0.517800    0.768464    0.000000
    37  O     c     0.760272    0.013819    0.225257    0.000000
    38  O     c     0.759250    0.013207    0.780425    0.000000
    39  O     c     0.710922    0.513103    0.278929    0.000000
    40  O     c     0.711944    0.513715    0.723761    0.000000
    41  La    s     0.998728    0.001324    0.000441    0.000000
    42  La    s     0.978845    0.026485    0.500206    0.000000
    43  La    s     0.000618    0.503711    0.004289    0.000000
    44  La    s     0.975937    0.524620    0.504404    0.000000
    45  La    s     0.495256    0.002303    0.999783    0.000000
    46  La    s     0.470575    0.023211    0.499898    0.000000
    47  La    s     0.492348    0.500438    0.003982    0.000000
    48  La    s     0.472465    0.525599    0.503746    0.000000
    49  Al    s     0.235597    0.263461    0.252093    0.000000
    50  Fe    s     0.235597    0.263461    0.752093    0.000000
    51  Fe    s     0.235597    0.763461    0.252093    0.000000
    52  Al    s     0.235597    0.763461    0.752093    0.000000
    53  Fe    s     0.735597    0.263461    0.252093    0.000000
    54  Fe    s     0.735597    0.263461    0.752093    0.000000
    55  Fe    s     0.735597    0.763461    0.252093    0.000000
    56  Fe    s     0.735597    0.763461    0.752093    0.000000
    57  O     s     0.209368    0.254020    0.006537    0.000000
    58  O     s     0.261826    0.272902    0.497649    0.000000
    59  O     s     0.251467    0.786941    0.997667    0.000000
    60  O     s     0.219727    0.739980    0.506519    0.000000
    61  O     s     0.747903    0.298393    0.002692    0.000000
    62  O     s     0.723290    0.228528    0.501494    0.000000
    63  O     s     0.703964    0.744479    0.001545    0.000000
    64  O     s     0.767230    0.782443    0.502641    0.000000
    65  O     s     0.992364    0.287576    0.273278    0.000000
    66  O     s     0.987413    0.286992    0.731219    0.000000
    67  O     s     0.987855    0.738939    0.228553    0.000000
    68  O     s     0.992610    0.738780    0.775265    0.000000
    69  O     s     0.478829    0.239345    0.230908    0.000000
    70  O     s     0.483780    0.239929    0.772967    0.000000
    71  O     s     0.483339    0.787983    0.275633    0.000000
    72  O     s     0.478584    0.788141    0.728920    0.000000
    73  O     s     0.211783    0.017596    0.270112    0.000000
    74  O     s     0.211362    0.009414    0.735651    0.000000
    75  O     s     0.259411    0.509326    0.234074    0.000000
    76  O     s     0.259832    0.517507    0.768535    0.000000
    77  O     s     0.760461    0.013759    0.225145    0.000000
    78  O     s     0.759337    0.012612    0.781257    0.000000
    79  O     s     0.710732    0.513163    0.279041    0.000000
    80  O     s     0.711857    0.514309    0.722929    0.000000
--------------------------------------------------------------------------------

  Final Cartesian lattice vectors (Angstroms) :

        7.814820   -0.017090    0.000255
       -0.017122    7.814149    0.000492
        0.000257    0.000486    7.793781


  Final cell parameters and derivatives :

--------------------------------------------------------------------------------
       a            7.814838 Angstrom     dE/de1(xx)    -0.000033 eV/strain
       b            7.814168 Angstrom     dE/de2(yy)    -0.000038 eV/strain
       c            7.793782 Angstrom     dE/de3(zz)    -0.000159 eV/strain
       alpha       89.992819 Degrees      dE/de4(yz)     0.000032 eV/strain
       beta        89.996252 Degrees      dE/de5(xz)    -0.000021 eV/strain
       gamma       90.250842 Degrees      dE/de6(xy)    -0.000132 eV/strain
--------------------------------------------------------------------------------

  Primitive cell volume =           475.934048 Angs**3

  Density of cell =      6.574587 g/cm**3

  Non-primitive cell volume =           475.934048 Angs**3


  Final internal derivatives :

--------------------------------------------------------------------------------
   No.  Atomic          a             b             c           Radius
        Label          (eV)          (eV)          (eV)        (eV/Angs)
--------------------------------------------------------------------------------
      1 La    c       0.000000      0.000000      0.000000      0.000000
      2 La    c      -0.000072     -0.000015      0.000059      0.000000
      3 La    c      -0.000067     -0.000381     -0.000121      0.000000
      4 La    c      -0.000373     -0.000132     -0.000016      0.000000
      5 La    c       0.000286      0.000136     -0.000048      0.000000
      6 La    c       0.000011      0.000251      0.000010      0.000000
      7 La    c       0.000156     -0.000171     -0.000016      0.000000
      8 La    c       0.000077     -0.000152      0.000012      0.000000
      9 Al    c       0.000004     -0.000002     -0.000003      0.000000
     10 Fe    c       0.000032     -0.000242     -0.000240      0.000000
     11 Fe    c       0.000093     -0.000200      0.000019      0.000000
     12 Al    c       0.000007     -0.000007     -0.000007      0.000000
     13 Fe    c      -0.000032     -0.000163      0.000028      0.000000
     14 Fe    c       0.000082     -0.000076     -0.000218      0.000000
     15 Fe    c       0.000030      0.000022      0.000036      0.000000
     16 Fe    c       0.000230     -0.000157     -0.000188      0.000000
     17 O     c      -0.000019     -0.000028      0.000010      0.000000
     18 O     c      -0.000015     -0.000012     -0.000002      0.000000
     19 O     c      -0.000002     -0.000005      0.000003      0.000000
     20 O     c       0.000029     -0.000006      0.000005      0.000000
     21 O     c       0.000002     -0.000017      0.000009      0.000000
     22 O     c       0.000010      0.000012     -0.000002      0.000000
     23 O     c       0.000069     -0.000031      0.000009      0.000000
     24 O     c      -0.000037      0.000050      0.000004      0.000000
     25 O     c      -0.000010     -0.000017     -0.000027      0.000000
     26 O     c      -0.000008      0.000021      0.000032      0.000000
     27 O     c       0.000004     -0.000016      0.000022      0.000000
     28 O     c       0.000010      0.000000     -0.000031      0.000000
     29 O     c       0.000002      0.000019      0.000046      0.000000
     30 O     c      -0.000002      0.000001     -0.000040      0.000000
     31 O     c      -0.000001      0.000004     -0.000015      0.000000
     32 O     c      -0.000010     -0.000023     -0.000010      0.000000
     33 O     c       0.000007      0.000010     -0.000019      0.000000
     34 O     c      -0.000006     -0.000001      0.000010      0.000000
     35 O     c      -0.000004      0.000018      0.000005      0.000000
     36 O     c      -0.000000      0.000022     -0.000009      0.000000
     37 O     c       0.000000      0.000018     -0.000030      0.000000
     38 O     c      -0.000006     -0.000006     -0.000016      0.000000
     39 O     c       0.000026     -0.000003     -0.000013      0.000000
     40 O     c       0.000013      0.000000      0.000021      0.000000
     41 La    s      -0.000151      0.000241      0.000149      0.000000
     42 La    s       0.000023      0.000009     -0.000012      0.000000
     43 La    s       0.000013      0.000501      0.000127      0.000000
     44 La    s       0.000484      0.000320      0.000053      0.000000
     45 La    s      -0.000349     -0.000162      0.000102      0.000000
     46 La    s      -0.000006     -0.000264      0.000015      0.000000
     47 La    s      -0.000214      0.000259      0.000044      0.000000
     48 La    s      -0.000117      0.000213      0.000000      0.000000
     49 Al    s      -0.000041     -0.000055     -0.000017      0.000000
     50 Fe    s      -0.000025      0.000224      0.000241      0.000000
     51 Fe    s      -0.000094      0.000197      0.000042      0.000000
     52 Al    s      -0.000045     -0.000013     -0.000123      0.000000
     53 Fe    s       0.000065      0.000132     -0.000028      0.000000
     54 Fe    s      -0.000092      0.000082      0.000197      0.000000
     55 Fe    s      -0.000046      0.000015     -0.000050      0.000000
     56 Fe    s      -0.000196      0.000206      0.000177      0.000000
     57 O     s       0.000010     -0.000095     -0.000010      0.000000
     58 O     s      -0.000014      0.000045     -0.000002      0.000000
     59 O     s       0.000176     -0.000095      0.000029      0.000000
     60 O     s      -0.000088     -0.000041     -0.000002      0.000000
     61 O     s      -0.000043     -0.000022     -0.000026      0.000000
     62 O     s       0.000022     -0.000058      0.000010      0.000000
     63 O     s      -0.000085     -0.000071     -0.000015      0.000000
     64 O     s      -0.000000     -0.000034     -0.000001      0.000000
     65 O     s       0.000053     -0.000007     -0.000040      0.000000
     66 O     s       0.000031     -0.000046     -0.000024      0.000000
     67 O     s      -0.000002      0.000039     -0.000032      0.000000
     68 O     s       0.000012     -0.000137     -0.000004      0.000000
     69 O     s      -0.000042     -0.000034     -0.000063      0.000000
     70 O     s      -0.000010     -0.000018      0.000029      0.000000
     71 O     s       0.000019      0.000019      0.000005      0.000000
     72 O     s       0.000047      0.000029      0.000034      0.000000
     73 O     s       0.000033      0.000023      0.000008      0.000000
     74 O     s       0.000017      0.000074     -0.000058      0.000000
     75 O     s       0.000023     -0.000065     -0.000051      0.000000
     76 O     s       0.000025     -0.000072      0.000052      0.000000
     77 O     s       0.000082     -0.000046     -0.000016      0.000000
     78 O     s       0.000050      0.000025     -0.000004      0.000000
     79 O     s      -0.000034      0.000026     -0.000010      0.000000
     80 O     s      -0.000036      0.000016     -0.000003      0.000000
--------------------------------------------------------------------------------
  Maximum abs         0.000484      0.000501      0.000241      0.000000
--------------------------------------------------------------------------------


  Time to end of optimisation =       1.2964 seconds


  Peak dynamic memory used =       3.39 MB 


  Timing analysis for GULP :

--------------------------------------------------------------------------------
  Task / Subroutine                                          Time (Seconds)
--------------------------------------------------------------------------------
  Calculation of reciprocal space energy and derivatives          0.0793
  Calculation of real space energy and derivatives                1.1836
  Calculation and manipulation of Hessian matrix                  0.0130
  Calculation of matrix inversion                                 0.0112
  Global summation overhead                                       0.0001
--------------------------------------------------------------------------------
  Total CPU time                                                  1.2964
--------------------------------------------------------------------------------


  Job Finished at 17:31.35  5th April      2026                               

