Mg28Ni4O32
   1.00000000
   8.440348582   0.000001998  -0.000003272
   0.000001998   8.440348582  -0.000003272
  -0.000003272  -0.000003272   8.440355550
  Ni  Mg  O
  4  28  32
Direct configuration=     1
   0.000041912   0.000041912   0.000096886
   0.500041649   0.500041649   0.500080546
   0.000043484   0.249888680   0.249923901
   0.249888680   0.000043484   0.249923901
   0.000070394   0.000070394   0.499848371
   0.999982929   0.499939733   0.000049011
   0.999993686   0.499904928   0.499929160
   0.499939733   0.999982929   0.000049011
   0.499904928   0.999993686   0.499929160
   0.500022411   0.500022411   0.000013687
   0.999976934   0.249963113   0.750059170
   0.000079489   0.750142833   0.249937060
   0.999972307   0.750035850   0.750069666
   0.499939176   0.250079631   0.250145566
   0.500031645   0.250106834   0.749858733
   0.499933440   0.749936378   0.250114439
   0.500014487   0.749906456   0.749887497
   0.249963113   0.999976934   0.750059170
   0.250079631   0.499939176   0.250145566
   0.250106834   0.500031645   0.749858733
   0.750142833   0.000079489   0.249937060
   0.750035850   0.999972307   0.750069666
   0.749936378   0.499933440   0.250114439
   0.749906456   0.500014487   0.749887497
   0.249842214   0.249842214   0.000174748
   0.250046155   0.250046155   0.499836627
   0.249944737   0.750166981   0.000058184
   0.250112502   0.749933315   0.499967813
   0.750166981   0.249944737   0.000058184
   0.749933315   0.250112502   0.499967813
   0.750044058   0.750044058   0.999969064
   0.749889627   0.749889627   0.500011635
   0.250007138   0.250007138   0.249913801
   0.249920066   0.249920066   0.750006815
   0.249882007   0.749889435   0.249937343
   0.249970315   0.750074474   0.750012064
   0.749889435   0.249882007   0.249937343
   0.750074474   0.249970315   0.750012064
   0.750065757   0.750065757   0.249990043
   0.750021956   0.750021956   0.750008714
   0.250042282   0.000059255   0.999967553
   0.249946774   0.000042351   0.500127411
   0.249961757   0.500002573   0.000066067
   0.249682228   0.500009368   0.499938272
   0.749873070   0.000050879   0.000106204
   0.750020593   0.000005964   0.499938229
   0.750029745   0.499989582   0.000026503
   0.750290779   0.500005898   0.499988431
   0.000059255   0.250042282   0.999967553
   0.000042351   0.249946774   0.500127411
   0.000050879   0.749873070   0.000106204
   0.000005964   0.750020593   0.499938229
   0.500002573   0.249961757   0.000066067
   0.500009368   0.249682228   0.499938272
   0.499989582   0.750029745   0.000026503
   0.500005898   0.750290779   0.499988431
   0.999982951   0.999982951   0.250020811
   0.000076285   0.000076285   0.749867895
   0.000065990   0.500135872   0.249970098
   0.000022471   0.499930724   0.750028236
   0.500135872   0.000065990   0.249970098
   0.499930724   0.000022471   0.750028236
   0.499931095   0.499931095   0.249668353
   0.499982398   0.499982398   0.750278788
Mg28Ni4O32
   1.00000000
   8.442210373   0.000012986  -0.000021082
   0.000012986   8.442210373  -0.000021082
  -0.000021082  -0.000021082   8.442254575
  Ni  Mg  O
  4  28  32
Direct configuration=     2
   0.000219171   0.000219171   0.000505081
   0.500221178   0.500221178   0.500431651
   0.000226080   0.249430777   0.249603431
   0.249430777   0.000226080   0.249603431
   0.000387173   0.000387173   0.499182796
   0.999951334   0.499681633   0.000293402
   0.999984579   0.499479284   0.499588398
   0.499681633   0.999951334   0.000293402
   0.499479284   0.999984579   0.499588398
   0.500086125   0.500086125   0.000109868
   0.999913920   0.249803059   0.750292033
   0.000434137   0.750745171   0.249682390
   0.999871037   0.750182928   0.750345913
   0.499681629   0.250403488   0.250742521
   0.500139753   0.250525523   0.749280217
   0.499648722   0.749683126   0.250583281
   0.500055995   0.749551171   0.749427379
   0.249803059   0.999913920   0.750292033
   0.250403488   0.499681629   0.250742521
   0.250525523   0.500139753   0.749280217
   0.750745171   0.000434137   0.249682390
   0.750182928   0.999871037   0.750345913
   0.749683126   0.499648722   0.250583281
   0.749551171   0.500055995   0.749427379
   0.249170396   0.249170396   0.000945676
   0.250210361   0.250210361   0.499124102
   0.249702884   0.750875431   0.000334981
   0.250539436   0.749665815   0.499818211
   0.750875431   0.249702884   0.000334981
   0.749665815   0.250539436   0.499818211
   0.750228470   0.750228470   0.999886885
   0.749466223   0.749466223   0.500010395
   0.250000230   0.250000230   0.249550782
   0.249585566   0.249585566   0.750019102
   0.249380087   0.749438012   0.249678470
   0.249854387   0.750396725   0.750056390
   0.749438012   0.249380087   0.249678470
   0.750396725   0.249854387   0.750056390
   0.750342622   0.750342622   0.249955059
   0.750107309   0.750107309   0.750049249
   0.250164807   0.000325082   0.999878157
   0.249690093   0.000231973   0.500622494
   0.249768364   0.500008185   0.000361874
   0.248315062   0.500041953   0.499649987
   0.749381969   0.000277175   0.000574916
   0.750136712   0.000040670   0.499659824
   0.750195252   0.499933856   0.000145837
   0.751549964   0.500015015   0.499931828
   0.000325082   0.250164807   0.999878157
   0.000231973   0.249690093   0.500622494
   0.000277175   0.749381969   0.000574916
   0.000040670   0.750136712   0.499659824
   0.500008185   0.249768364   0.000361874
   0.500041953   0.248315062   0.499649987
   0.499933856   0.750195252   0.000145837
   0.500015015   0.751549964   0.499931828
   0.999959700   0.999959700   0.250048969
   0.000396988   0.000396988   0.749351696
   0.000344833   0.500673297   0.249831998
   0.000108671   0.499628898   0.750167365
   0.500673297   0.000344833   0.249831998
   0.499628898   0.000108671   0.750167365
   0.499623587   0.499623587   0.248263537
   0.499916949   0.499916949   0.751462554
Mg28Ni4O32
   1.00000000
   8.442770619   0.000016470  -0.000026645
   0.000016470   8.442770619  -0.000026645
  -0.000026645  -0.000026645   8.442826213
  Ni  Mg  O
  4  28  32
Direct configuration=     3
   0.000234297   0.000234297   0.000538133
   0.500241681   0.500241681   0.500475328
   0.000240536   0.249402826   0.249576293
   0.249402826   0.000240536   0.249576293
   0.000431400   0.000431400   0.499106053
   0.999985439   0.499657681   0.000348117
   0.999999199   0.499420403   0.499521349
   0.499657681   0.999985439   0.000348117
   0.499420403   0.999999199   0.499521349
   0.500063908   0.500063908   0.000150353
   0.999939705   0.249785898   0.750296084
   0.000479760   0.750793597   0.249671694
   0.999876562   0.750191338   0.750353403
   0.499659817   0.250417559   0.250774461
   0.500126036   0.250528920   0.749248664
   0.499620710   0.749676541   0.250607360
   0.500041938   0.749559920   0.749405215
   0.249785898   0.999939705   0.750296084
   0.250417559   0.499659817   0.250774461
   0.250528920   0.500126036   0.749248664
   0.750793597   0.000479760   0.249671694
   0.750191338   0.999876562   0.750353403
   0.749676541   0.499620710   0.250607360
   0.749559920   0.500041938   0.749405215
   0.249109897   0.249109897   0.001038479
   0.250195305   0.250195305   0.499042419
   0.249675995   0.750938684   0.000384689
   0.250529451   0.749657623   0.499793492
   0.750938684   0.249675995   0.000384689
   0.749657623   0.250529451   0.499793492
   0.750242197   0.750242197   0.999923798
   0.749471617   0.749471617   0.499965354
   0.249966773   0.249966773   0.249525113
   0.249561940   0.249561940   0.750005047
   0.249338180   0.749414337   0.249664338
   0.249851470   0.750429378   0.750053915
   0.749414337   0.249338180   0.249664338
   0.750429378   0.249851470   0.750053915
   0.750365036   0.750365036   0.249959174
   0.750108953   0.750108953   0.750055267
   0.250123887   0.000360260   0.999914113
   0.249639659   0.000257375   0.500623122
   0.249723545   0.500002114   0.000402371
   0.248181929   0.500036909   0.499602117
   0.749382488   0.000305675   0.000631191
   0.750174557   0.000052669   0.499618941
   0.750245331   0.499917396   0.000165991
   0.751678858   0.500000775   0.499918138
   0.000360260   0.250123887   0.999914113
   0.000257375   0.249639659   0.500623122
   0.000305675   0.749382488   0.000631191
   0.000052669   0.750174557   0.499618941
   0.500002114   0.249723545   0.000402371
   0.500036909   0.248181929   0.499602117
   0.499917396   0.750245331   0.000165991
   0.500000775   0.751678858   0.499918138
   0.000002509   0.000002509   0.249996191
   0.000421214   0.000421214   0.749345494
   0.000367620   0.500684666   0.249810085
   0.000110905   0.499595057   0.750196840
   0.500684666   0.000367620   0.249810085
   0.499595057   0.000110905   0.750196840
   0.499583919   0.499583919   0.248146613
   0.499918178   0.499918178   0.751563219
Mg28Ni4O32
   1.00000000
   8.450565165   0.000065234  -0.000104485
   0.000065234   8.450565165  -0.000104485
  -0.000104485  -0.000104485   8.450779787
  Ni  Mg  O
  4  28  32
Direct configuration=     4
   0.000350006   0.000350006   0.000778353
   0.500445642   0.500445642   0.500928555
   0.000345625   0.249258581   0.249355872
   0.249258581   0.000345625   0.249355872
   0.000906552   0.000906552   0.498353783
   0.000517043   0.499455062   0.001025325
   0.000218127   0.498785134   0.498715002
   0.499455062   0.000517043   0.001025325
   0.498785134   0.000218127   0.498715002
   0.499693722   0.499693722   0.000686695
   0.000362036   0.249621846   0.750221591
   0.000950932   0.751160406   0.249660585
   0.000014525   0.750228476   0.750301883
   0.499485685   0.250425918   0.250889756
   0.499857711   0.250317139   0.749132075
   0.499366662   0.749737301   0.250678907
   0.499809794   0.749925164   0.749368854
   0.249621846   0.000362036   0.750221591
   0.250425918   0.499485685   0.250889756
   0.250317139   0.499857711   0.749132075
   0.751160406   0.000950932   0.249660585
   0.750228476   0.000014525   0.750301883
   0.749737301   0.499366662   0.250678907
   0.749925164   0.499809794   0.749368854
   0.248603073   0.248603073   0.001967527
   0.249866245   0.249866245   0.498231612
   0.249421651   0.751470225   0.000954972
   0.250109745   0.749704419   0.499515729
   0.751470225   0.249421651   0.000954972
   0.749704419   0.250109745   0.499515729
   0.750336611   0.750336611   0.000523564
   0.749820791   0.749820791   0.499299625
   0.249475660   0.249475660   0.249369922
   0.249415676   0.249415676   0.749786200
   0.249022032   0.749330859   0.249619526
   0.249862208   0.750721790   0.749990426
   0.749330859   0.249022032   0.249619526
   0.750721790   0.249862208   0.749990426
   0.750536795   0.750536795   0.250046374
   0.750093493   0.750093493   0.750117681
   0.249438506   0.000727886   0.000506070
   0.249030527   0.000522505   0.500318617
   0.249169533   0.499895052   0.000835211
   0.247037100   0.499931504   0.499058724
   0.749690552   0.000595909   0.001195741
   0.750683564   0.000215196   0.499157764
   0.750899019   0.499694903   0.000422457
   0.752830826   0.499777263   0.499730368
   0.000727886   0.249438506   0.000506070
   0.000522505   0.249030527   0.500318617
   0.000595909   0.749690552   0.001195741
   0.000215196   0.750683564   0.499157764
   0.499895052   0.249169533   0.000835211
   0.499931504   0.247037100   0.499058724
   0.499694903   0.750899019   0.000422457
   0.499777263   0.752830826   0.499730368
   0.000658518   0.000658518   0.249186543
   0.000589599   0.000589599   0.749558490
   0.000538997   0.500523585   0.249564903
   0.000115763   0.499264271   0.750553783
   0.500523585   0.000538997   0.249564903
   0.499264271   0.000115763   0.750553783
   0.499176010   0.499176010   0.247278127
   0.499963055   0.499963055   0.752338665
Mg28Ni4O32
   1.00000000
   8.456199766   0.000100549  -0.000161058
   0.000100549   8.456199766  -0.000161058
  -0.000161058  -0.000161058   8.456530022
  Ni  Mg  O
  4  28  32
Direct configuration=     5
   0.000362185   0.000362185   0.000790947
   0.500533911   0.500533911   0.501138609
   0.000354541   0.249304820   0.249298571
   0.249304820   0.000354541   0.249298571
   0.001127370   0.001127370   0.498052515
   0.000883221   0.499402438   0.001407587
   0.000355203   0.498476940   0.498269875
   0.499402438   0.000883221   0.001407587
   0.498476940   0.000355203   0.498269875
   0.499425734   0.499425734   0.000990360
   0.000660168   0.249555535   0.750106854
   0.001155098   0.751224035   0.249724780
   0.000128833   0.750207866   0.750184701
   0.499446771   0.250318373   0.250773499
   0.499647336   0.250026896   0.749249933
   0.499276906   0.749869121   0.250569269
   0.499646913   0.750316056   0.749521294
   0.249555535   0.000660168   0.750106854
   0.250318373   0.499446771   0.250773499
   0.250026896   0.499647336   0.749249933
   0.751224035   0.001155098   0.249724780
   0.750207866   0.000128833   0.750184701
   0.749869121   0.499276906   0.250569269
   0.750316056   0.499646913   0.749521294
   0.248468324   0.248468324   0.002349976
   0.249589046   0.249589046   0.497887947
   0.249332673   0.751620359   0.001235201
   0.249673954   0.749833333   0.499381996
   0.751620359   0.249332673   0.001235201
   0.749833333   0.249673954   0.499381996
   0.750342237   0.750342237   0.000946555
   0.750210513   0.750210513   0.498869603
   0.249162574   0.249162574   0.249398928
   0.249432988   0.249432988   0.749633517
   0.248984956   0.749416162   0.249689514
   0.249878331   0.750812051   0.749934689
   0.749416162   0.248984956   0.249689514
   0.750812051   0.249878331   0.749934689
   0.750569338   0.750569338   0.250121666
   0.750076131   0.750076131   0.750142141
   0.248949027   0.000888765   0.000925207
   0.248694009   0.000636144   0.499932009
   0.248866060   0.499799727   0.001038572
   0.246750086   0.499833653   0.498788229
   0.750057408   0.000716630   0.001431010
   0.751007377   0.000318156   0.498909594
   0.751288494   0.499547979   0.000600943
   0.753168039   0.499617312   0.499596454
   0.000888765   0.248949027   0.000925207
   0.000636144   0.248694009   0.499932009
   0.000716630   0.750057408   0.001431010
   0.000318156   0.751007377   0.498909594
   0.499799727   0.248866060   0.001038572
   0.499833653   0.246750086   0.498788229
   0.499547979   0.751288494   0.000600943
   0.499617312   0.753168039   0.499596454
   0.001101987   0.001101987   0.248637489
   0.000598650   0.000598650   0.749855174
   0.000562267   0.500232365   0.249446056
   0.000132084   0.499128950   0.750747178
   0.500232365   0.000562267   0.249446056
   0.499128950   0.000132084   0.750747178
   0.499002947   0.499002947   0.247207520
   0.499992641   0.499992641   0.752451021
Mg28Ni4O32
   1.00000000
   8.462730524   0.000141328  -0.000226895
   0.000141328   8.462730524  -0.000226895
  -0.000226895  -0.000226895   8.463195818
  Ni  Mg  O
  4  28  32
Direct configuration=     6
   0.000314526   0.000314526   0.000672790
   0.500583495   0.500583495   0.501269034
   0.000313698   0.249439865   0.249298909
   0.249439865   0.000313698   0.249298909
   0.001249207   0.001249207   0.497924606
   0.001203149   0.499417866   0.001691311
   0.000451259   0.498274596   0.497939324
   0.499417866   0.001203149   0.001691311
   0.498274596   0.000451259   0.497939324
   0.499179040   0.499179040   0.001185299
   0.000921904   0.249518313   0.749971685
   0.001252194   0.751161351   0.249816921
   0.000231789   0.750161319   0.750030672
   0.499464612   0.250137967   0.250535903
   0.499447885   0.249656610   0.749504509
   0.499246479   0.750056971   0.250357581
   0.499506957   0.750793772   0.749812733
   0.249518313   0.000921904   0.749971685
   0.250137967   0.499464612   0.250535903
   0.249656610   0.499447885   0.749504509
   0.751161351   0.001252194   0.249816921
   0.750161319   0.000231789   0.750030672
   0.750056971   0.499246479   0.250357581
   0.750793772   0.499506957   0.749812733
   0.248487905   0.248487905   0.002512997
   0.249309287   0.249309287   0.497705973
   0.249317890   0.751624191   0.001388088
   0.249171045   0.750025436   0.499310256
   0.751624191   0.249317890   0.001388088
   0.750025436   0.249171045   0.499310256
   0.750308770   0.750308770   0.001322223
   0.750680175   0.750680175   0.498528701
   0.248923117   0.248923117   0.249534855
   0.249536389   0.249536389   0.749495827
   0.249091668   0.749587251   0.249838125
   0.249865857   0.750812654   0.749879987
   0.749587251   0.249091668   0.249838125
   0.750812654   0.249865857   0.749879987
   0.750545798   0.750545798   0.250202126
   0.750078923   0.750078923   0.750148199
   0.248522618   0.000963316   0.001289771
   0.248448748   0.000681340   0.499442596
   0.248666504   0.499677669   0.001159541
   0.246900561   0.499712273   0.498626374
   0.750487279   0.000764680   0.001537003
   0.751292096   0.000405906   0.498709729
   0.751591142   0.499407295   0.000805922
   0.753107228   0.499465514   0.499452046
   0.000963316   0.248522618   0.001289771
   0.000681340   0.248448748   0.499442596
   0.000764680   0.750487279   0.001537003
   0.000405906   0.751292096   0.498709729
   0.499677669   0.248666504   0.001159541
   0.499712273   0.246900561   0.498626374
   0.499407295   0.751591142   0.000805922
   0.499465514   0.753107228   0.499452046
   0.001478902   0.001478902   0.248166635
   0.000530956   0.000530956   0.750205690
   0.000515198   0.499838403   0.249380063
   0.000199860   0.499064051   0.750877318
   0.499838403   0.000515198   0.249380063
   0.499064051   0.000199860   0.750877318
   0.498929773   0.498929773   0.247590049
   0.499997512   0.499997512   0.752222266
Mg28Ni4O32
   1.00000000
   8.468705040   0.000178322  -0.000287374
   0.000178322   8.468705040  -0.000287374
  -0.000287374  -0.000287374   8.469295061
  Ni  Mg  O
  4  28  32
Direct configuration=     7
   0.000236393   0.000236393   0.000497231
   0.500590880   0.500590880   0.501296953
   0.000254569   0.249549723   0.249313440
   0.249549723   0.000254569   0.249313440
   0.001243634   0.001243634   0.497960144
   0.001324083   0.499473270   0.001770315
   0.000450997   0.498220468   0.497837146
   0.499473270   0.001324083   0.001770315
   0.498220468   0.000450997   0.497837146
   0.499072257   0.499072257   0.001175008
   0.001017045   0.249501582   0.749905981
   0.001227986   0.751064202   0.249857632
   0.000259556   0.750128147   0.749939851
   0.499505999   0.249997358   0.250345783
   0.499363160   0.249407802   0.749735172
   0.499258017   0.750193433   0.250185802
   0.499461399   0.751131523   0.750092238
   0.249501582   0.001017045   0.749905981
   0.249997358   0.499505999   0.250345783
   0.249407802   0.499363160   0.749735172
   0.751064202   0.001227986   0.249857632
   0.750128147   0.000259556   0.749939851
   0.750193433   0.499258017   0.250185802
   0.751131523   0.499461399   0.750092238
   0.248585453   0.248585453   0.002449256
   0.249176020   0.249176020   0.497689237
   0.249363903   0.751556493   0.001354752
   0.248862963   0.750172549   0.499325806
   0.751556493   0.249363903   0.001354752
   0.750172549   0.248862963   0.499325806
   0.750271344   0.750271344   0.001469439
   0.750989529   0.750989529   0.498448173
   0.248883049   0.248883049   0.249689462
   0.249647672   0.249647672   0.749439315
   0.249254735   0.749723195   0.249982054
   0.249795388   0.750752440   0.749861179
   0.749723195   0.249254735   0.249982054
   0.750752440   0.249795388   0.749861179
   0.750508693   0.750508693   0.250247063
   0.750124800   0.750124800   0.750138117
   0.248385292   0.000936265   0.001407719
   0.248384994   0.000646031   0.499103574
   0.248661893   0.499571585   0.001173027
   0.247343195   0.499615026   0.498629770
   0.750730753   0.000733746   0.001506264
   0.751421930   0.000440898   0.498606953
   0.751676930   0.499324418   0.000981623
   0.752753274   0.499390626   0.499350555
   0.000936265   0.248385292   0.001407719
   0.000646031   0.248384994   0.499103574
   0.000733746   0.750730753   0.001506264
   0.000440898   0.751421930   0.498606953
   0.499571585   0.248661893   0.001173027
   0.499615026   0.247343195   0.498629770
   0.499324418   0.751676930   0.000981623
   0.499390626   0.752753274   0.499350555
   0.001604182   0.001604182   0.247998922
   0.000444894   0.000444894   0.750385176
   0.000444851   0.499564966   0.249390247
   0.000324894   0.499067585   0.750888720
   0.499564966   0.000444851   0.249390247
   0.499067585   0.000324894   0.750888720
   0.498969795   0.498969795   0.248188647
   0.499960271   0.499960271   0.751836654
Mg28Ni4O32
   1.00000000
   8.478149577   0.000236440  -0.000383442
   0.000236440   8.478149577  -0.000383442
  -0.000383442  -0.000383442   8.478938491
  Ni  Mg  O
  4  28  32
Direct configuration=     8
   0.000110757   0.000110757   0.000226662
   0.500576035   0.500576035   0.501264625
   0.000170930   0.249611570   0.249299614
   0.249611570   0.000170930   0.249299614
   0.001134477   0.001134477   0.498102513
   0.001280811   0.499566342   0.001692990
   0.000343885   0.498250678   0.497896945
   0.499566342   0.001280811   0.001692990
   0.498250678   0.000343885   0.497896945
   0.499078323   0.499078323   0.000952611
   0.000967002   0.249471070   0.749915315
   0.001101405   0.750963651   0.249820281
   0.000206171   0.750118207   0.749912382
   0.499561008   0.249890351   0.250209023
   0.499377001   0.249241344   0.749966332
   0.499286743   0.750292212   0.250054003
   0.499501916   0.751423042   0.750426856
   0.249471070   0.000967002   0.749915315
   0.249890351   0.499561008   0.250209023
   0.249241344   0.499377001   0.749966332
   0.750963651   0.001101405   0.249820281
   0.750118207   0.000206171   0.749912382
   0.750292212   0.499286743   0.250054003
   0.751423042   0.499501916   0.750426856
   0.248727404   0.248727404   0.002197777
   0.249175818   0.249175818   0.497760137
   0.249463706   0.751467079   0.001134309
   0.248689916   0.750293074   0.499427142
   0.751467079   0.249463706   0.001134309
   0.750293074   0.248689916   0.499427142
   0.750238740   0.750238740   0.001429835
   0.751204868   0.751204868   0.498617060
   0.249045885   0.249045885   0.249879647
   0.249763713   0.249763713   0.749453002
   0.249482458   0.749826529   0.250145401
   0.249610502   0.750644712   0.749887391
   0.749826529   0.249482458   0.250145401
   0.750644712   0.249610502   0.749887391
   0.750480358   0.750480358   0.250262686
   0.750251518   0.750251518   0.750119670
   0.248529335   0.000813952   0.001282900
   0.248467271   0.000525328   0.498839195
   0.248856772   0.499439886   0.001113252
   0.248141370   0.499506573   0.498789534
   0.750804878   0.000627100   0.001362615
   0.751440435   0.000434581   0.498530949
   0.751571782   0.499265275   0.001211966
   0.752071216   0.499372880   0.499261953
   0.000813952   0.248529335   0.001282900
   0.000525328   0.248467271   0.498839195
   0.000627100   0.750804878   0.001362615
   0.000434581   0.751440435   0.498530949
   0.499439886   0.248856772   0.001113252
   0.499506573   0.248141370   0.498789534
   0.499265275   0.751571782   0.001211966
   0.499372880   0.752071216   0.499261953
   0.001501068   0.001501068   0.248087233
   0.000339381   0.000339381   0.750379380
   0.000357006   0.499370588   0.249475615
   0.000575716   0.499112180   0.750782331
   0.499370588   0.000357006   0.249475615
   0.499112180   0.000575716   0.750782331
   0.499120935   0.499120935   0.249132460
   0.499863282   0.499863282   0.751258111
Mg28Ni4O32
   1.00000000
   8.488780784   0.000301790  -0.000492544
   0.000301790   8.488780784  -0.000492544
  -0.000492545  -0.000492545   8.489796136
  Ni  Mg  O
  4  28  32
Direct configuration=     9
   0.999999197   0.999999197   0.999996359
   0.500543488   0.500543488   0.501173530
   0.000111089   0.249519854   0.249222143
   0.249519854   0.000111089   0.249222143
   0.000945495   0.000945495   0.498281489
   0.001010448   0.499646577   0.001432474
   0.000136152   0.498375994   0.498160166
   0.499646577   0.001010448   0.001432474
   0.498375994   0.000136152   0.498160166
   0.499263426   0.499263426   0.000549363
   0.000719969   0.249420816   0.750045614
   0.000907028   0.750954262   0.249662750
   0.000057382   0.750165025   0.750016193
   0.499592003   0.249942483   0.250292554
   0.499539014   0.249351931   0.750007971
   0.499313752   0.750236631   0.250118580
   0.499651939   0.751425428   0.750600749
   0.249420816   0.000719969   0.750045614
   0.249942483   0.499592003   0.250292554
   0.249351931   0.499539014   0.750007971
   0.750954262   0.000907028   0.249662750
   0.750165025   0.000057382   0.750016193
   0.750236631   0.499313752   0.250118580
   0.751425428   0.499651939   0.750600749
   0.248816378   0.248816378   0.001838245
   0.249412628   0.249412628   0.497898306
   0.249567695   0.751430093   0.000772587
   0.248877556   0.750261329   0.499593198
   0.751430093   0.249567695   0.000772587
   0.750261329   0.248877556   0.499593198
   0.750246925   0.750246925   0.001126543
   0.751096942   0.751096942   0.499070106
   0.249424722   0.249424722   0.249969356
   0.249776315   0.249776315   0.749576736
   0.249626342   0.749791374   0.250206255
   0.249357772   0.750557811   0.749981995
   0.749791374   0.249626342   0.250206255
   0.750557811   0.249357772   0.749981995
   0.750505555   0.750505555   0.250210596
   0.750428171   0.750428171   0.750116432
   0.249043360   0.000626146   0.000830584
   0.248727763   0.000352495   0.498892830
   0.249246636   0.499363333   0.000993617
   0.248913600   0.499459110   0.499094213
   0.750520579   0.000476574   0.001143862
   0.751251320   0.000364061   0.498539173
   0.751221201   0.499288868   0.001367845
   0.751379699   0.499467258   0.499281361
   0.000626146   0.249043360   0.000830584
   0.000352495   0.248727763   0.498892830
   0.000476574   0.750520579   0.001143862
   0.000364061   0.751251320   0.498539173
   0.499363333   0.249246636   0.000993617
   0.499459110   0.248913600   0.499094213
   0.499288868   0.751221201   0.001367845
   0.499467258   0.751379699   0.499281361
   0.001093474   0.001093474   0.248515568
   0.000286790   0.000286790   0.750040838
   0.000320005   0.499458992   0.249623683
   0.000852986   0.499181920   0.750551190
   0.499458992   0.000320005   0.249623683
   0.499181920   0.000852986   0.750551190
   0.499345240   0.499345240   0.249945976
   0.499751599   0.499751599   0.750827379
Mg28Ni4O32
   1.00000000
   8.496137233   0.000347532  -0.000569771
   0.000347532   8.496137233  -0.000569771
  -0.000569771  -0.000569771   8.497313154
  Ni  Mg  O
  4  28  32
Direct configuration=     10
   0.999966660   0.999966660   0.999937572
   0.500505351   0.500505351   0.501063313
   0.000109385   0.249311358   0.249120738
   0.249311358   0.000109385   0.249120738
   0.000767996   0.000767996   0.498404116
   0.000654541   0.499670051   0.001115873
   0.999942326   0.498552787   0.498510330
   0.499670051   0.000654541   0.001115873
   0.498552787   0.999942326   0.498510330
   0.499539857   0.499539857   0.000194254
   0.000405616   0.249377748   0.750217432
   0.000738262   0.751032651   0.249468237
   0.999900363   0.750247206   0.750194302
   0.499588992   0.250157945   0.250576246
   0.499762599   0.249721002   0.749809193
   0.499337254   0.750026866   0.250380608
   0.499831363   0.751086305   0.750480034
   0.249377748   0.000405616   0.750217432
   0.250157945   0.499588992   0.250576246
   0.249721002   0.499762599   0.749809193
   0.751032651   0.000738262   0.249468237
   0.750247206   0.999900363   0.750194302
   0.750026866   0.499337254   0.250380608
   0.751086305   0.499831363   0.750480034
   0.248817076   0.248817076   0.001539313
   0.249787909   0.249787909   0.498067625
   0.249616256   0.751440821   0.000466071
   0.249366980   0.750059547   0.499737382
   0.751440821   0.249616256   0.000466071
   0.750059547   0.249366980   0.499737382
   0.750291376   0.750291376   0.000721733
   0.750677344   0.750677344   0.499565632
   0.249812199   0.249812199   0.249879386
   0.249651330   0.249651330   0.749755759
   0.249582666   0.749637406   0.250100851
   0.249194456   0.750550595   0.750105735
   0.749637406   0.249582666   0.250100851
   0.750550595   0.249194456   0.750105735
   0.750573735   0.750573735   0.250104138
   0.750544682   0.750544682   0.750148468
   0.249665514   0.000464904   0.000268468
   0.249054602   0.000218457   0.499269423
   0.249638762   0.499413451   0.000872774
   0.249204495   0.499522289   0.499401348
   0.750001031   0.000358687   0.000945800
   0.750906177   0.000257370   0.498660012
   0.750780950   0.499408011   0.001310956
   0.751083466   0.499643402   0.499457057
   0.000464904   0.249665514   0.000268468
   0.000218457   0.249054602   0.499269423
   0.000358687   0.750001031   0.000945800
   0.000257370   0.750906177   0.498660012
   0.499413451   0.249638762   0.000872774
   0.499522289   0.249204495   0.499401348
   0.499408011   0.750780950   0.001310956
   0.499643402   0.751083466   0.499457057
   0.000582936   0.000582936   0.249052244
   0.000317483   0.000317483   0.749533149
   0.000364507   0.499805638   0.249762035
   0.000961326   0.499252111   0.750302291
   0.499805638   0.000364507   0.249762035
   0.499252111   0.000961326   0.750302291
   0.499534360   0.499534360   0.250139881
   0.499721206   0.499721206   0.750827024
Mg28Ni4O32
   1.00000000
   8.498079354   0.000360817  -0.000592592
   0.000360817   8.498079354  -0.000592592
  -0.000592593  -0.000592593   8.499302821
  Ni  Mg  O
  4  28  32
Direct configuration=     11
   0.000002931   0.000002931   0.000014393
   0.500475886   0.500475886   0.500989834
   0.000140612   0.249172185   0.249082325
   0.249172185   0.000140612   0.249082325