Mg28Ni4O32
   1.00000000
   8.440350473  -0.000000000  -0.000000000
  -0.000000000   8.440350351   0.000000270
  -0.000000000   0.000000270   8.440348123
  Ni  Mg  O
  4  28  32
Direct configuration=     1
   0.000000000   0.000048690   0.000067447
   0.000000000   0.000035886   0.499927064
   0.500000000   0.500054904   0.999952806
   0.000000000   0.249846792   0.250018733
   0.000000000   0.499906767   0.000085117
   0.000000000   0.499926627   0.499938010
   0.500000000   0.000002053   0.999966550
   0.500000000   0.999990245   0.500035714
   0.500000000   0.500019089   0.500007155
   0.000000000   0.249828981   0.750003213
   0.000000000   0.750190911   0.249993548
   0.000000000   0.750199318   0.750005404
   0.500000000   0.250147200   0.249879908
   0.500000000   0.250121639   0.750096306
   0.500000000   0.749847471   0.249906170
   0.500000000   0.749891265   0.750089908
   0.249702731   0.000070079   0.250002614
   0.249836212   0.999979951   0.749994167
   0.250063987   0.499950342   0.249904451
   0.250088658   0.500016033   0.750102929
   0.750297269   0.000070079   0.250002614
   0.750163788   0.999979951   0.749994167
   0.749936013   0.499950342   0.249904451
   0.749911342   0.500016033   0.750102929
   0.249931926   0.250013579   0.000048455
   0.249834214   0.249917082   0.499941826
   0.250011824   0.749974194   0.999973140
   0.249920059   0.750083169   0.500031766
   0.750068074   0.250013579   0.000048455
   0.750165786   0.249917082   0.499941826
   0.749988176   0.749974194   0.999973140
   0.750079941   0.750083169   0.500031766
   0.250090805   0.249912231   0.250016710
   0.249939334   0.249988689   0.749993122
   0.249945463   0.750003606   0.249999581
   0.249975409   0.750003037   0.750001482
   0.749909195   0.249912231   0.250016710
   0.750060666   0.249988689   0.749993122
   0.750054537   0.750003606   0.249999581
   0.750024591   0.750003037   0.750001482
   0.250173950   0.000031532   0.000038342
   0.250134051   0.000044924   0.499960522
   0.249674284   0.500012172   0.000005898
   0.249987072   0.499990342   0.499983393
   0.749826050   0.000031532   0.000038342
   0.749865949   0.000044924   0.499960522
   0.750325716   0.500012172   0.000005898
   0.750012928   0.499990342   0.499983393
   0.000000000   0.250110718   0.999917148
   0.000000000   0.250072941   0.500076347
   0.000000000   0.749828935   0.000052940
   0.000000000   0.749864973   0.499944927
   0.500000000   0.249638305   0.000100281
   0.500000000   0.249967910   0.499913823
   0.500000000   0.750317563   0.000027292
   0.500000000   0.750011486   0.499977252
   0.000000000   0.000003368   0.249937531
   0.000000000   0.000060248   0.750061375
   0.000000000   0.500129418   0.249958223
   0.000000000   0.499945751   0.750035655
   0.500000000   0.000084177   0.249964487
   0.500000000   0.000017360   0.750039504
   0.500000000   0.499920392   0.250230826
   0.500000000   0.499986697   0.749792541
Mg28Ni4O32
   1.00000000
   8.442189333  -0.000000000  -0.000000000
  -0.000000000   8.442189571   0.000001692
  -0.000000000   0.000001692   8.442176009
  Ni  Mg  O
  4  28  32
Direct configuration=     2
   0.000000000   0.000251773   0.000370386
   0.000000000   0.000183309   0.499598380
   0.500000000   0.500284050   0.999750596
   0.000000000   0.249230672   0.250082422
   0.000000000   0.499499047   0.000463054
   0.000000000   0.499611724   0.499668130
   0.500000000   0.000038555   0.999868046
   0.500000000   0.999982091   0.500141379
   0.500000000   0.500072191   0.500022033
   0.000000000   0.249126914   0.750039127
   0.000000000   0.750975432   0.249934735
   0.000000000   0.751019072   0.750060891
   0.500000000   0.250705630   0.249362619
   0.500000000   0.250598116   0.750502926
   0.500000000   0.749262588   0.249508737
   0.500000000   0.749475591   0.750469256
   0.248460811   0.000385483   0.249987411
   0.249157720   0.999917182   0.749994655
   0.250295569   0.499739469   0.249503106
   0.250382397   0.500064584   0.750539631
   0.751539189   0.000385483   0.249987411
   0.750842280   0.999917182   0.749994655
   0.749704431   0.499739469   0.249503106
   0.749617603   0.500064584   0.750539631
   0.249619730   0.250036549   0.000262547
   0.249135454   0.249562524   0.499681356
   0.250021475   0.749887878   0.999881146
   0.249570281   0.750432653   0.500146452
   0.750380270   0.250036549   0.000262547
   0.750864546   0.249562524   0.499681356
   0.749978525   0.749887878   0.999881146
   0.750429719   0.750432653   0.500146452
   0.250416050   0.249526404   0.250070107
   0.249665131   0.249928507   0.749982543
   0.249692269   0.750030899   0.249982649
   0.249857063   0.750036242   0.750022963
   0.749583950   0.249526404   0.250070107
   0.750334869   0.249928507   0.749982543
   0.750307731   0.750030899   0.249982649
   0.750142937   0.750036242   0.750022963
   0.250852798   0.000170843   0.000203406
   0.250637657   0.000242501   0.499790689
   0.248295000   0.500053829   0.000039849
   0.249919784   0.499937061   0.499903098
   0.749147202   0.000170843   0.000203406
   0.749362343   0.000242501   0.499790689
   0.751705000   0.500053829   0.000039849
   0.750080216   0.499937061   0.499903098
   0.000000000   0.250532756   0.999594934
   0.000000000   0.250327008   0.500380239
   0.000000000   0.749153747   0.000277518
   0.000000000   0.749350960   0.499712427
   0.500000000   0.248134734   0.000526832
   0.500000000   0.249841752   0.499553841
   0.500000000   0.751639157   0.000133052
   0.500000000   0.750052121   0.499894604
   0.000000000   0.000059594   0.249647235
   0.000000000   0.000313808   0.750341960
   0.000000000   0.500637088   0.249796315
   0.000000000   0.499710976   0.750172793
   0.500000000   0.000432519   0.249833279
   0.500000000   0.000082464   0.750189656
   0.500000000   0.499572525   0.251166092
   0.500000000   0.499936818   0.748953289
Mg28Ni4O32
   1.00000000
   8.442744341   0.000000000  -0.000000000
   0.000000000   8.442745442   0.000002148
  -0.000000000   0.000002148   8.442728218
  Ni  Mg  O
  4  28  32
Direct configuration=     3
   0.000000000   0.000271391   0.000414711
   0.000000000   0.000195008   0.499547661
   0.500000000   0.500307346   0.999725610
   0.000000000   0.249196381   0.250075198
   0.000000000   0.499446009   0.000518455
   0.000000000   0.499576751   0.499632882
   0.500000000   0.000065520   0.999895276
   0.500000000   0.000010441   0.500112592
   0.500000000   0.500052948   0.500010543
   0.000000000   0.249073991   0.750062471
   0.000000000   0.751032404   0.249900752
   0.000000000   0.751083262   0.750095887
   0.500000000   0.250704172   0.249303302
   0.500000000   0.250611572   0.750544097
   0.500000000   0.749255972   0.249469613
   0.500000000   0.749474178   0.750505624
   0.248348265   0.000433177   0.249962440
   0.249102390   0.999930555   0.750017019
   0.250284049   0.499716956   0.249465827
   0.250338910   0.500052363   0.750584032
   0.751651735   0.000433177   0.249962440
   0.750897610   0.999930555   0.750017019
   0.749715951   0.499716956   0.249465827
   0.749661090   0.500052363   0.750584032
   0.249565497   0.250007344   0.000291982
   0.249066883   0.249523602   0.499642969
   0.249985775   0.749900805   0.999890780
   0.249525003   0.750466297   0.500140932
   0.750434503   0.250007344   0.000291982
   0.750933117   0.249523602   0.499642969
   0.750014225   0.749900805   0.999890780
   0.750474997   0.750466297   0.500140932
   0.250395370   0.249476068   0.250058739
   0.249621986   0.249911348   0.749999164
   0.249646410   0.750045767   0.249966569
   0.249830093   0.750057647   0.750039729
   0.749604630   0.249476068   0.250058739
   0.750378014   0.249911348   0.749999164
   0.750353590   0.750045767   0.249966569
   0.750169907   0.750057647   0.750039729
   0.250868874   0.000190177   0.000223713
   0.250630456   0.000268816   0.499769837
   0.248156926   0.500048044   0.000052161
   0.249899165   0.499919408   0.499885156
   0.749131126   0.000190177   0.000223713
   0.749369544   0.000268816   0.499769837
   0.751843074   0.500048044   0.000052161
   0.750100835   0.499919408   0.499885156
   0.000000000   0.250531920   0.999588658
   0.000000000   0.250302642   0.500393488
   0.000000000   0.749128975   0.000301209
   0.000000000   0.749350544   0.499688760
   0.500000000   0.248009668   0.000570144
   0.500000000   0.249836306   0.499520623
   0.500000000   0.751749703   0.000136832
   0.500000000   0.750050475   0.499895665
   0.000000000   0.000103340   0.249593635
   0.000000000   0.000337026   0.750391134
   0.000000000   0.500653475   0.249795329
   0.000000000   0.499681540   0.750173850
   0.500000000   0.000460903   0.249838060
   0.500000000   0.000084194   0.750188864
   0.500000000   0.499528814   0.251218872
   0.500000000   0.499936379   0.748908100
Mg28Ni4O32
   1.00000000
   8.451374483  -0.000000000   0.000000000
  -0.000000000   8.451390565   0.000009399
   0.000000000   0.000009399   8.451315338
  Ni  Mg  O
  4  28  32
Direct configuration=     4
   0.000000000   0.000471836   0.000947848
   0.000000000   0.000294622   0.498918961
   0.500000000   0.500551348   0.999431142
   0.000000000   0.249027634   0.249914517
   0.000000000   0.498817590   0.001208172
   0.000000000   0.499197835   0.499214961
   0.500000000   0.000482764   0.000409258
   0.500000000   0.000486223   0.499565884
   0.500000000   0.499695162   0.499816740
   0.000000000   0.248626886   0.750426460
   0.000000000   0.751476062   0.249372613
   0.000000000   0.751636252   0.750646468
   0.500000000   0.250320877   0.248650346
   0.500000000   0.250528616   0.750967253
   0.500000000   0.749526739   0.249083361
   0.500000000   0.749728499   0.750856038
   0.247264193   0.001018591   0.249556833
   0.248617139   0.000194525   0.750388183
   0.249944045   0.499474911   0.249106957
   0.249414848   0.499818361   0.751036031
   0.752735807   0.001018591   0.249556833
   0.751382861   0.000194525   0.750388183
   0.750055955   0.499474911   0.249106957
   0.750585152   0.499818361   0.751036031
   0.248851728   0.249500858   0.000641144
   0.248371478   0.249102986   0.499177056
   0.249376852   0.750180930   0.000106761
   0.248997492   0.750803895   0.499979206
   0.751148272   0.249500858   0.000641144
   0.751628522   0.249102986   0.499177056
   0.750623148   0.750180930   0.000106761
   0.751002508   0.750803895   0.499979206
   0.249831155   0.248890521   0.249824371
   0.249078956   0.249662259   0.750293090
   0.249039729   0.750288054   0.249701674
   0.249437421   0.750394166   0.750314198
   0.750168845   0.248890521   0.249824371
   0.750921044   0.249662259   0.750293090
   0.750960271   0.750288054   0.249701674
   0.750562579   0.750394166   0.750314198
   0.250692787   0.000423764   0.000466749
   0.250169567   0.000581899   0.499520127
   0.246748808   0.499914902   0.000243799
   0.249576209   0.499649370   0.499630778
   0.749307213   0.000423764   0.000466749
   0.749830433   0.000581899   0.499520127
   0.753251192   0.499914902   0.000243799
   0.750423791   0.499649370   0.499630778
   1.000000000   0.250238082   0.999701894
   0.000000000   0.249720738   0.500415167
   0.000000000   0.749154595   0.000560717
   0.000000000   0.749687845   0.499436279
   0.500000000   0.246912639   0.001016245
   0.500000000   0.249814539   0.499191164
   0.500000000   0.752729876   0.000149133
   0.500000000   0.750009144   0.499945217
   0.000000000   0.000799006   0.248872163
   0.000000000   0.000558043   0.751047456
   0.000000000   0.500591451   0.249894480
   0.000000000   0.499339364   0.750100746
   0.500000000   0.000709308   0.250005085
   0.500000000   0.000092600   0.750075818
   0.500000000   0.499024135   0.251444744
   0.500000000   0.499949708   0.748739754
Mg28Ni4O32
   1.00000000
   8.457931119   0.000000000   0.000000000
  -0.000000000   8.457958694   0.000015155
   0.000000000   0.000015155   8.457838259
  Ni  Mg  O
  4  28  32
Direct configuration=     5
   0.000000000   0.000547570   0.001193794
   0.000000000   0.000310411   0.498598474
   0.500000000   0.500647389   0.999281552
   0.000000000   0.249139420   0.249780811
   0.000000000   0.498505777   0.001578480
   0.000000000   0.499043307   0.499009184
   0.500000000   0.000744717   0.000801906
   0.500000000   0.000821721   0.499144327
   0.500000000   0.499417777   0.499687080
   0.000000000   0.248528790   0.750666097
   0.000000000   0.751510888   0.249024032
   0.000000000   0.751756445   0.751020538
   0.500000000   0.249856357   0.248378395
   0.500000000   0.250301474   0.751120787
   0.500000000   0.749934952   0.248968358
   0.500000000   0.750073543   0.750948935
   0.246926219   0.001305192   0.249279191
   0.248514681   0.000403863   0.750647466
   0.249625333   0.499374841   0.249002821
   0.248640660   0.499636930   0.751189662
   0.753073781   0.001305192   0.249279191
   0.751485319   0.000403863   0.750647466
   0.750374667   0.499374841   0.249002821
   0.751359340   0.499636930   0.751189662
   0.248440715   0.249128656   0.000804122
   0.248123893   0.248931865   0.498951207
   0.248930678   0.750424602   0.000285106
   0.248751117   0.750922393   0.499830626
   0.751559285   0.249128656   0.000804122
   0.751876107   0.248931865   0.498951207
   0.751069322   0.750424602   0.000285106
   0.751248883   0.750922393   0.499830626
   0.249301282   0.248626282   0.249623153
   0.248792682   0.249504949   0.750522234
   0.248692711   0.750470035   0.249508633
   0.249169337   0.750622048   0.750515065
   0.750698718   0.248626282   0.249623153
   0.751207318   0.249504949   0.750522234
   0.751307289   0.750470035   0.249508633
   0.750830663   0.750622048   0.750515065
   0.250318299   0.000539500   0.000597213
   0.249636835   0.000734285   0.499384069
   0.246253663   0.499789215   0.000380554
   0.249334348   0.499459967   0.499467505
   0.749681701   0.000539500   0.000597213
   0.750363165   0.000734285   0.499384069
   0.753746337   0.499789215   0.000380554
   0.750665652   0.499459967   0.499467505
   1.000000000   0.249869373   0.999913305
   0.000000000   0.249199361   0.500317632
   0.000000000   0.749418296   0.000680059
   0.000000000   0.750133286   0.499326301
   0.500000000   0.246707517   0.001175575
   0.500000000   0.249823326   0.499072496
   0.500000000   0.752933852   0.000150037
   0.500000000   0.749985582   0.499972459
   0.000000000   0.001271444   0.248441994
   0.000000000   0.000618676   0.751445428
   0.000000000   0.500351734   0.250042031
   0.000000000   0.499175729   0.749995929
   0.500000000   0.000759971   0.250172988
   0.500000000   0.000113512   0.749936989
   0.500000000   0.498790914   0.251180339
   0.500000000   0.499957642   0.748996437
Mg28Ni4O32
   1.00000000
   8.465102984   0.000000000   0.000000000
   0.000000000   8.465141396   0.000021861
   0.000000000   0.000021861   8.464970051
  Ni  Mg  O
  4  28  32
Direct configuration=     6
   0.000000000   0.000566517   0.001269650
   0.000000000   0.000279996   0.498434699
   0.500000000   0.500671160   0.999191352
   1.000000000   0.249410901   0.249662424
   1.000000000   0.498334144   0.001813026
   0.000000000   0.499001365   0.498902275
   0.500000000   0.000910784   0.001136931
   0.500000000   0.001090370   0.498779337
   0.500000000   0.499166951   0.499598688
   1.000000000   0.248569824   0.750841352
   0.000000000   0.751336406   0.248766885
   0.000000000   0.751679431   0.751317490
   0.500000000   0.249347253   0.248299785
   0.500000000   0.249996144   0.751140365
   0.500000000   0.750437004   0.249006915
   0.500000000   0.750494533   0.750890675
   0.246950077   0.001425691   0.249066558
   0.248605561   0.000590901   0.750851681
   0.249315559   0.499341974   0.249033001
   0.247904347   0.499477859   0.751184101
   0.753049923   0.001425691   0.249066558
   0.751394439   0.000590901   0.750851681
   0.750684441   0.499341974   0.249033001
   0.752095653   0.499477859   0.751184101
   0.248158451   0.248812539   0.000865894
   0.248095135   0.248884242   0.498855224
   0.248543825   0.750671116   0.000441558
   0.248642575   0.750936414   0.499689904
   0.751841549   0.248812539   0.000865894
   0.751904865   0.248884242   0.498855224
   0.751456175   0.750671116   0.000441558
   0.751357425   0.750936414   0.499689904
   0.248759959   0.248537953   0.249418433
   0.248632036   0.249388240   0.750741934
   0.248463008   0.750646686   0.249337848
   0.248925605   0.750802109   0.750696933
   0.751240041   0.248537953   0.249418433
   0.751367964   0.249388240   0.750741934
   0.751536992   0.750646686   0.249337848
   0.751074395   0.750802109   0.750696933
   0.249826307   0.000595278   0.000689244
   0.249023251   0.000807544   0.499282920
   0.246228613   0.499646671   0.000505690
   0.249091643   0.499289123   0.499335553
   0.750173693   0.000595278   0.000689244
   0.750976749   0.000807544   0.499282920
   0.753771387   0.499646671   0.000505690
   0.750908357   0.499289123   0.499335553
   1.000000000   0.249444089   0.000197234
   0.000000000   0.248674156   0.500152520
   0.000000000   0.749816470   0.000747892
   0.000000000   0.750674577   0.499271592
   0.500000000   0.246998928   0.001184990
   0.500000000   0.249828351   0.499044687
   0.500000000   0.752720935   0.000175251
   0.500000000   0.749988747   0.499949805
   0.000000000   0.001639590   0.248125822
   1.000000000   0.000592067   0.751761657
   0.000000000   0.499996699   0.250240570
   0.000000000   0.499094644   0.749866786
   0.500000000   0.000709151   0.250346678
   0.500000000   0.000182596   0.749773320
   0.500000000   0.498692662   0.250552111
   0.500000000   0.499944874   0.749564284
Mg28Ni4O32
   1.00000000
   8.470744881   0.000000000   0.000000000
   0.000000000   8.470788554   0.000027636
   0.000000000   0.000027636   8.470575547
  Ni  Mg  O
  4  28  32
Direct configuration=     7
   1.000000000   0.000543904   0.001151529
   1.000000000   0.000233236   0.498482122
   0.500000000   0.500630639   0.999182251
   1.000000000   0.249638717   0.249632938
   1.000000000   0.498339321   0.001842075
   0.000000000   0.499061821   0.498919588
   0.500000000   0.000888022   0.001227064
   0.500000000   0.001150830   0.498672920
   0.500000000   0.499072296   0.499604065
   1.000000000   0.248626831   0.750859718
   0.000000000   0.751126270   0.248736569
   0.000000000   0.751544977   0.751389948
   0.500000000   0.249125512   0.248397276
   0.500000000   0.249824983   0.751063191
   0.500000000   0.750718098   0.249144645
   0.500000000   0.750741506   0.750741002
   0.247183288   0.001338373   0.249032954
   0.248769993   0.000652747   0.750890582
   0.249206585   0.499370002   0.249139239
   0.247606717   0.499428134   0.751065265
   0.752816712   0.001338373   0.249032954
   0.751230007   0.000652747   0.750890582
   0.750793415   0.499370002   0.249139239
   0.752393283   0.499428134   0.751065265
   0.248112116   0.248720062   0.000811565
   0.248221816   0.248944857   0.498919596
   0.248411243   0.750790477   0.000482227
   0.248687126   0.750879514   0.499643117
   0.751887884   0.248720062   0.000811565
   0.751778184   0.248944857   0.498919596
   0.751588757   0.750790477   0.000482227
   0.751312874   0.750879514   0.499643117
   0.248514059   0.248642759   0.249315812
   0.248652026   0.249363907   0.750844417
   0.248440167   0.750740160   0.249274136
   0.248803657   0.750845820   0.750772157
   0.751485941   0.248642759   0.249315812
   0.751347974   0.249363907   0.750844417
   0.751559833   0.750740160   0.249274136
   0.751196343   0.750845820   0.750772157
   0.249544892   0.000573782   0.000719384
   0.248683085   0.000783027   0.499242157
   0.246549042   0.499556283   0.000564404
   0.248951182   0.499210904   0.499291139
   0.750455108   0.000573782   0.000719384
   0.751316915   0.000783027   0.499242157
   0.753450958   0.499556283   0.000564404
   0.751048818   0.499210904   0.499291139
   1.000000000   0.249224554   0.000380309
   1.000000000   0.248429652   0.500038306
   0.000000000   0.750070663   0.000765076
   0.000000000   0.750994365   0.499267967
   0.500000000   0.247503638   0.001080277
   0.500000000   0.249806121   0.499075750
   0.500000000   0.752326166   0.000237390
   0.500000000   0.750027612   0.499858624
   0.000000000   0.001717085   0.248038654
   1.000000000   0.000515105   0.751889017
   1.000000000   0.499755020   0.250384869
   1.000000000   0.499111034   0.749791767
   0.500000000   0.000621643   0.250421238
   0.500000000   0.000294312   0.749678081
   0.500000000   0.498748403   0.249918310
   0.500000000   0.499906054   0.750111158
Mg28Ni4O32
   1.00000000
   8.479322863   0.000000000   0.000000000
   0.000000000   8.479369562   0.000037069
   0.000000000   0.000037069   8.479091163
  Ni  Mg  O
  4  28  32
Direct configuration=     8
   1.000000000   0.000496669   0.000820233
   1.000000000   0.000165900   0.498719779
   0.500000000   0.500528573   0.999225464
   1.000000000   0.249854598   0.249688451
   1.000000000   0.498467659   0.001735679
   1.000000000   0.499215252   0.499035296
   0.500000000   0.000674288   0.001111614
   0.500000000   0.001039954   0.498774762
   0.500000000   0.499084527   0.499704851
   1.000000000   0.248628376   0.750734522
   0.000000000   0.750873759   0.248912704
   1.000000000   0.751390910   0.751284388
   0.500000000   0.249148283   0.248639968
   0.500000000   0.249764607   0.750912963
   0.500000000   0.750852910   0.249394635
   0.500000000   0.750892535   0.750476395
   0.247582144   0.001039579   0.249158443
   0.249004828   0.000617230   0.750783529
   0.249274955   0.499447366   0.249315852
   0.247620124   0.499465555   0.750835686
   0.752417856   0.001039579   0.249158443
   0.750995172   0.000617230   0.750783529
   0.750725045   0.499447366   0.249315852
   0.752379876   0.499465555   0.750835686
   0.248240713   0.248808205   0.000643308
   0.248474523   0.249093479   0.499143827
   0.248462347   0.750830919   0.000421788
   0.248852038   0.750770089   0.499675303
   0.751759287   0.248808205   0.000643308
   0.751525477   0.249093479   0.499143827
   0.751537653   0.750830919   0.000421788
   0.751147962   0.750770089   0.499675303
   0.248472516   0.248947229   0.249272719
   0.248824315   0.249406822   0.750876587
   0.248578765   0.750801114   0.249288183
   0.248727898   0.750782985   0.750776034
   0.751527484   0.248947229   0.249272719
   0.751175685   0.249406822   0.750876587
   0.751421235   0.750801114   0.249288183
   0.751272102   0.750782985   0.750776034
   0.249420614   0.000480046   0.000719979
   0.248498185   0.000671695   0.499223727
   0.247197963   0.499477516   0.000590113
   0.248841825   0.499179402   0.499305029
   0.750579386   0.000480046   0.000719979
   0.751501815   0.000671695   0.499223727
   0.752802037   0.499477516   0.000590113
   0.751158175   0.499179402   0.499305029
   1.000000000   0.249149698   0.000515982
   1.000000000   0.248358869   0.499961062
   1.000000000   0.750220097   0.000774810
   1.000000000   0.751200645   0.499284783
   0.500000000   0.248290918   0.000860167
   0.500000000   0.249738718   0.499133687
   0.500000000   0.751715664   0.000374159
   0.500000000   0.750117502   0.499644894
   1.000000000   0.001554485   0.248085475
   1.000000000   0.000379789   0.751941207
   1.000000000   0.499565666   0.250535959
   1.000000000   0.499201111   0.749748930
   0.500000000   0.000503019   0.250418763
   0.500000000   0.000512786   0.749614140
   0.500000000   0.498949676   0.249059464
   0.500000000   0.499824094   0.750814600
Mg28Ni4O32
   1.00000000
   8.489221969   0.000000000   0.000000000
   0.000000000   8.489266882   0.000048651
   0.000000000   0.000048651   8.488910818
  Ni  Mg  O
  4  28  32
Direct configuration=     9
   1.000000000   0.000451297   0.000373444
   1.000000000   0.000115899   0.499095296
   0.500000000   0.500397127   0.999318949
   1.000000000   0.249875219   0.249853629
   1.000000000   0.498694749   0.001498808
   1.000000000   0.499407122   0.499226486
   0.500000000   0.000291091   0.000736993
   0.500000000   0.000729658   0.499142200
   0.500000000   0.499258319   0.499894835
   1.000000000   0.248499227   0.750455910
   0.000000000   0.750751745   0.249314244
   1.000000000   0.751340317   0.750960019
   0.500000000   0.249581057   0.248921913
   0.500000000   0.249952843   0.750773744
   0.500000000   0.750638826   0.249636755
   0.500000000   0.750770530   0.750220243
   0.247937544   0.000603385   0.249461112
   0.249173714   0.000446805   0.750505564
   0.249604708   0.499549034   0.249463440
   0.248135872   0.499621394   0.750604628
   0.752062456   0.000603385   0.249461112
   0.750826286   0.000446805   0.750505564
   0.750395292   0.499549034   0.249463440
   0.751864128   0.499621394   0.750604628
   0.248567112   0.249140116   0.000411526
   0.248735030   0.249268094   0.499471876
   0.248780456   0.750705108   0.000239128
   0.249078615   0.750663068   0.499813822
   0.751432888   0.249140116   0.000411526
   0.751264970   0.249268094   0.499471876
   0.751219544   0.750705108   0.000239128
   0.750921385   0.750663068   0.499813822
   0.248801591   0.249367584   0.249365412
   0.249118220   0.249522881   0.750762376
   0.248881540   0.750764953   0.249430128
   0.248780349   0.750591102   0.750649319
   0.751198409   0.249367584   0.249365412
   0.750881780   0.249522881   0.750762376
   0.751118460   0.750764953   0.249430128
   0.751219651   0.750591102   0.750649319
   0.249672832   0.000332526   0.000669785
   0.248703049   0.000495229   0.499256610
   0.247896960   0.499475151   0.000541859
   0.248872229   0.499247393   0.499409349
   0.750327168   0.000332526   0.000669785
   0.751296951   0.000495229   0.499256610
   0.752103040   0.499475151   0.000541859
   0.751127771   0.499247393   0.499409349
   1.000000000   0.249377150   0.000471009
   1.000000000   0.248612659   0.500018045
   1.000000000   0.750061558   0.000780586
   1.000000000   0.751074182   0.499318454
   0.500000000   0.248964621   0.000607267
   0.500000000   0.249652977   0.499181121
   0.500000000   0.751209053   0.000532971
   0.500000000   0.750217726   0.499376139
   1.000000000   0.001107657   0.248297294
   1.000000000   0.000245576   0.751859257
   1.000000000   0.499606154   0.250601807
   1.000000000   0.499340073   0.749792600
   0.500000000   0.000434597   0.250286814
   0.500000000   0.000758976   0.749640992
   0.500000000   0.499255673   0.248427086
   0.500000000   0.499738696   0.751273222
Mg28Ni4O32
   1.00000000
   8.496664603   0.000000000   0.000000000
   0.000000000   8.496703353   0.000058088
   0.000000000   0.000058088   8.496286387
  Ni  Mg  O
  4  28  32
Direct configuration=     10
   1.000000000   0.000429055   0.000060124
   1.000000000   0.000113881   0.499414172
   0.500000000   0.500300397   0.999426755
   1.000000000   0.249651133   0.250053932
   1.000000000   0.498922423   0.001231511
   1.000000000   0.499536929   0.499407268
   0.500000000   0.999936384   0.000280438
   0.500000000   0.000373334   0.499595992
   0.500000000   0.499521415   0.500074669
   1.000000000   0.248316568   0.750158438
   0.000000000   0.750842075   0.249753731
   1.000000000   0.751413501   0.750561760
   0.500000000   0.250238295   0.249080286
   0.500000000   0.250325812   0.750733063
   0.500000000   0.750141811   0.249716262
   0.500000000   0.750388589   0.750132313
   0.248068047   0.000259155   0.249795402
   0.249183226   0.000217483   0.750185623
   0.250053157   0.499630963   0.249486094
   0.248947473   0.499826517   0.750513365
   0.751931953   0.000259155   0.249795402
   0.750816774   0.000217483   0.750185623
   0.749946843   0.499630963   0.249486094
   0.751052527   0.499826517   0.750513365
   0.248964427   0.249576612   0.000242636
   0.248869326   0.249376421   0.499730858
   0.249239643   0.750439342   0.000028963
   0.249244440   0.750611327   0.499988271
   0.751035573   0.249576612   0.000242636
   0.751130674   0.249376421   0.499730858
   0.750760357   0.750439342   0.000028963
   0.750755560   0.750611327   0.499988271
   0.249379083   0.249686597   0.249582588
   0.249388257   0.249655674   0.750520750
   0.249215066   0.750615530   0.249659178
   0.248984220   0.750357944   0.750420024
   0.750620917   0.249686597   0.249582588
   0.750611743   0.249655674   0.750520750
   0.750784934   0.750615530   0.249659178
   0.751015780   0.750357944   0.750420024
   0.250227701   0.000201623   0.000566202
   0.249252460   0.000334924   0.499355918
   0.248266823   0.499579589   0.000419498
   0.249095209   0.499410468   0.499576179
   0.749772299   0.000201623   0.000566202
   0.750747540   0.000334924   0.499355918
   0.751733177   0.499579589   0.000419498
   0.750904791   0.499410468   0.499576179
   1.000000000   0.249828119   0.000234088
   1.000000000   0.249094569   0.500208643
   1.000000000   0.749627411   0.000768537
   1.000000000   0.750630386   0.499370962
   0.500000000   0.249123255   0.000449510
   0.500000000   0.249626723   0.499201426
   0.500000000   0.751108909   0.000590638
   0.500000000   0.750244369   0.499231235
   1.000000000   0.000578894   0.248595108
   1.000000000   0.000184901   0.751648478
   1.000000000   0.499893289   0.250529075
   1.000000000   0.499460643   0.749914177
   0.500000000   0.000468219   0.250078907
   0.500000000   0.000864362   0.749753260
   0.500000000   0.499527518   0.248465579
   0.500000000   0.499726492   0.751136564
Mg28Ni4O32
   1.00000000
   8.498975289   0.000000000   0.000000000
   0.000000000   8.499008178   0.000061708
   0.000000000   0.000061708   8.498569246
  Ni  Mg  O
  4  28  32
Direct configuration=     11
   1.000000000   0.000423044   0.000047245
   1.000000000   0.000142633   0.499500358
   0.500000000   0.500277881   0.999494842
   1.000000000   0.249405006   0.250152200