H107LiMg53
   1.00000000
   13.503016822   0.000002570  -0.000000000
   0.000002570   13.503016822  -0.000000000
  -0.000000000  -0.000000000   9.029981372
  Li  Mg  H
  1  53  107
Direct configuration=     1
   0.000013042   0.000013042   0.000000000
   0.999991044   0.999991044   0.332896295
   0.999991045   0.999991045   0.667103705
   0.000001462   0.333303208   0.000000000
   0.999998767   0.333322245   0.333325645
   0.999998767   0.333322245   0.666674355
   0.000021423   0.666684437   1.000000000
   0.999996367   0.666673793   0.333333857
   0.999996367   0.666673793   0.666666143
   0.333303208   0.000001462   0.000000000
   0.333322245   0.999998766   0.333325645
   0.333322245   0.999998767   0.666674355
   0.333329041   0.333329041   1.000000000
   0.333329206   0.333329206   0.333328611
   0.333329206   0.333329206   0.666671389
   0.333327070   0.666674413   1.000000000
   0.333330776   0.666667895   0.333337217
   0.333330777   0.666667895   0.666662783
   0.666684437   0.000021423   1.000000000
   0.666673793   0.999996366   0.333333857
   0.666673793   0.999996367   0.666666143
   0.666674413   0.333327070   0.000000000
   0.666667895   0.333330777   0.333337217
   0.666667895   0.333330777   0.666662783
   0.666480949   0.666480949   0.000000000
   0.666663212   0.666663212   0.333365539
   0.666663212   0.666663212   0.666634461
   0.166536191   0.166536191   0.166480265
   0.166656691   0.166656692   0.500000000
   0.166536191   0.166536191   0.833519734
   0.166659446   0.500002497   0.166664890
   0.166664514   0.499999963   0.500000000
   0.166659446   0.500002497   0.833335110
   0.166526073   0.833474677   0.166620918
   0.166654725   0.833345188   0.500000000
   0.166526073   0.833474676   0.833379081
   0.500002497   0.166659446   0.166664890
   0.499999962   0.166664515   0.500000000
   0.500002497   0.166659446   0.833335110
   0.500000993   0.500000992   0.166657856
   0.500001394   0.500001394   0.500000000
   0.500000993   0.500000992   0.833342144
   0.499996752   0.833344264   0.166672543
   0.500003754   0.833340745   0.500000000
   0.499996752   0.833344264   0.833327456
   0.833474677   0.166526073   0.166620919
   0.833345188   0.166654725   0.500000000
   0.833474677   0.166526073   0.833379081
   0.833344264   0.499996753   0.166672544
   0.833340745   0.500003754   0.500000000
   0.833344264   0.499996753   0.833327456
   0.833614664   0.833614664   0.166921581
   0.833350180   0.833350180   0.500000000
   0.833614664   0.833614664   0.833078419
   0.101609289   0.101609289   1.000000000
   0.101465167   0.101465167   0.333406668
   0.101465168   0.101465168   0.666593332
   0.101441272   0.434772491   0.000000000
   0.101439145   0.434771226   0.333332644
   0.101439145   0.434771226   0.666667356
   0.101453965   0.768076031   0.000000000
   0.101439357   0.768084307   0.333355305
   0.101439357   0.768084307   0.666644695
   0.434772491   0.101441272   1.000000000
   0.434771226   0.101439145   0.333332644
   0.434771226   0.101439145   0.666667356
   0.434771137   0.434771137   0.000000000
   0.434772488   0.434772488   0.333332368
   0.434772488   0.434772489   0.666667632
   0.434774009   0.768106434   0.000000000
   0.434771906   0.768104660   0.333332737
   0.434771906   0.768104660   0.666667263
   0.768076031   0.101453965   1.000000000
   0.768084307   0.101439357   0.333355305
   0.768084307   0.101439357   0.666644695
   0.768106434   0.434774009   1.000000000
   0.768104660   0.434771906   0.333332737
   0.768104660   0.434771906   0.666667263
   0.768103067   0.768103066   0.333318196
   0.768103067   0.768103066   0.666681804
   0.231960491   0.231960491   1.000000000
   0.231890877   0.231890877   0.333325812
   0.231890877   0.231890877   0.666674188
   0.231895984   0.565227805   0.000000000
   0.231894981   0.565227640   0.333332690
   0.231894981   0.565227640   0.666667310
   0.231927348   0.898542654   1.000000000
   0.231916566   0.898562049   0.333355774
   0.231916566   0.898562049   0.666644226
   0.565227805   0.231895984   0.000000000
   0.565227641   0.231894981   0.333332690
   0.565227641   0.231894981   0.666667310
   0.565230186   0.565230186   1.000000000
   0.565227748   0.565227749   0.333333323
   0.565227748   0.565227749   0.666666677
   0.565252706   0.898545614   1.000000000
   0.565225330   0.898559347   0.333334563
   0.565225330   0.898559347   0.666665438
   0.898542654   0.231927348   0.000000000
   0.898562049   0.231916566   0.333355774
   0.898562049   0.231916566   0.666644226
   0.898545614   0.565252706   0.000000000
   0.898559347   0.565225330   0.333334562
   0.898559347   0.565225330   0.666665438
   0.898162004   0.898162004   0.000000000
   0.898543322   0.898543322   0.333389859
   0.898543322   0.898543322   0.666610141
   0.065217400   0.268137635   0.166692093
   0.065226622   0.268098957   0.500000000
   0.065217400   0.268137635   0.833307907
   0.065223234   0.601444093   0.166661343
   0.065230567   0.601439247   0.500000000
   0.065223234   0.601444093   0.833338657
   0.065354197   0.934639019   0.166960751
   0.065221528   0.934786927   0.500000000
   0.065354197   0.934639019   0.833039250
   0.398559336   0.268103269   0.166665947
   0.398561757   0.268105297   0.500000000
   0.398559336   0.268103269   0.833334053
   0.398557829   0.601439711   0.166668761
   0.398560111   0.601438459   0.500000000
   0.398557829   0.601439711   0.833331239
   0.398559222   0.934771730   0.166667650
   0.398560273   0.934771025   0.500000000
   0.398559222   0.934771730   0.833332350
   0.731898730   0.268100987   0.166666341
   0.731894345   0.268105600   0.500000000
   0.731898730   0.268100987   0.833333659
   0.731917892   0.601497212   0.166595345
   0.731893407   0.601436334   0.500000000
   0.731917892   0.601497212   0.833404655
   0.731875709   0.934721321   0.166611944
   0.731893676   0.934781106   0.500000000
   0.731875710   0.934721321   0.833388056
   0.268137635   0.065217400   0.166692093
   0.268098957   0.065226621   0.500000000
   0.268137635   0.065217400   0.833307907
   0.268103269   0.398559336   0.166665947
   0.268105297   0.398561757   0.500000000
   0.268103269   0.398559336   0.833334053
   0.268100987   0.731898730   0.166666341
   0.268105600   0.731894346   0.500000000
   0.268100987   0.731898730   0.833333659
   0.601444093   0.065223234   0.166661343
   0.601439247   0.065230566   0.500000000
   0.601444093   0.065223234   0.833338657
   0.601439711   0.398557829   0.166668761
   0.601438459   0.398560111   0.500000000
   0.601439711   0.398557829   0.833331239
   0.601497213   0.731917892   0.166595345
   0.601436334   0.731893407   0.500000000
   0.601497212   0.731917892   0.833404655
   0.934639019   0.065354197   0.166960750
   0.934786927   0.065221528   0.500000000
   0.934639019   0.065354197   0.833039249
   0.934771730   0.398559222   0.166667650
   0.934771025   0.398560273   0.500000000
   0.934771730   0.398559222   0.833332350
   0.934721321   0.731875710   0.166611944
   0.934781105   0.731893676   0.500000000
   0.934721321   0.731875710   0.833388056
H107LiMg53
   1.00000000
   13.503231992   0.000034712  -0.000000000
   0.000034712   13.503231992  -0.000000000
  -0.000000000  -0.000000000   9.029751793
  Li  Mg  H
  1  53  107
Direct configuration=     2
   0.000158143   0.000158143   0.999999995
   0.999905404   0.999905403   0.327998976
   0.999905406   0.999905406   0.672001063
   0.000023765   0.332971580   0.999999993
   0.999983965   0.333201466   0.333258508
   0.999983967   0.333201468   0.666741488
   0.000267803   0.666867933   0.999999999
   0.999947570   0.666750938   0.333331517
   0.999947570   0.666750939   0.666668503
   0.332971576   0.000023769   0.999999995
   0.333201467   0.999983967   0.333258513
   0.333201472   0.999983968   0.666741478
   0.333293909   0.333293914   0.999999992
   0.333273422   0.333273424   0.333279959
   0.333273421   0.333273419   0.666720069
   0.333244225   0.666775206   0.999999983
   0.333296438   0.666685942   0.333376264
   0.333296442   0.666685939   0.666623763
   0.666867934   0.000267799   0.999999997
   0.666750940   0.999947569   0.333331515
   0.666750944   0.999947569   0.666668503
   0.666775202   0.333244221   0.999999989
   0.666685943   0.333296440   0.333376267
   0.666685938   0.333296442   0.666623768
   0.664263066   0.664263065   0.999999992
   0.666628503   0.666628503   0.333722364
   0.666628504   0.666628502   0.666277649
   0.165032460   0.165032458   0.164407051
   0.166560547   0.166560548   0.499999995
   0.165032463   0.165032465   0.835592969
   0.166570933   0.500032043   0.166639185
   0.166636159   0.499997166   0.499999983
   0.166570931   0.500032045   0.833360825
   0.164964041   0.835047038   0.166137553
   0.166500395   0.833503438   0.499999993
   0.164964041   0.835047039   0.833862430
   0.500032044   0.166570931   0.166639183
   0.499997162   0.166636160   0.499999985
   0.500032043   0.166570932   0.833360825
   0.500004621   0.500004623   0.166566221
   0.500014870   0.500014873   0.499999980
   0.500004620   0.500004621   0.833433793
   0.499969037   0.833473469   0.166728249
   0.500044924   0.833432970   0.499999986
   0.499969037   0.833473468   0.833271767
   0.835047042   0.164964044   0.166137550
   0.833503438   0.166500393   0.499999996
   0.835047043   0.164964044   0.833862431
   0.833473467   0.499969039   0.166728244
   0.833432973   0.500044930   0.499999987
   0.833473465   0.499969041   0.833271766
   0.836929106   0.836929105   0.170064277
   0.833513687   0.833513684   0.499999998
   0.836929110   0.836929110   0.829935726
   0.103590916   0.103590915   0.999999987
   0.101822572   0.101822572   0.334240933
   0.101822571   0.101822568   0.665759076
   0.101532545   0.434831174   0.999999994
   0.101509172   0.434819564   0.333328566
   0.101509173   0.434819560   0.666671442
   0.101703289   0.767805882   0.999999997
   0.101518801   0.767889473   0.333621408
   0.101518798   0.767889473   0.666378605
   0.434831173   0.101532546   0.999999993
   0.434819564   0.101509172   0.333328566
   0.434819560   0.101509169   0.666671443
   0.434825565   0.434825565   0.999999996
   0.434835958   0.434835956   0.333322700
   0.434835957   0.434835957   0.666677323
   0.434861070   0.768181719   0.999999994
   0.434834583   0.768159260   0.333329133
   0.434834580   0.768159257   0.666670890
   0.767805879   0.101703286   0.999999997
   0.767889473   0.101518799   0.333621409
   0.767889472   0.101518798   0.666378604
   0.768181716   0.434861069   0.999999994
   0.768159255   0.434834577   0.333329131
   0.768159255   0.434834575   0.666670889
   0.768166705   0.768166706   0.333126351
   0.768166704   0.768166704   0.666873648
   0.232670422   0.232670419   0.999999983
   0.231761925   0.231761925   0.333182966
   0.231761923   0.231761922   0.666817041
   0.231848465   0.565165161   0.999999994
   0.231834983   0.565162791   0.333329291
   0.231834987   0.565162792   0.666670718
   0.232240270   0.898254805   0.999999997
   0.232118590   0.898493681   0.333629582
   0.232118589   0.898493681   0.666370433
   0.565165162   0.231848464   0.999999992
   0.565162792   0.231834983   0.333329292
   0.565162795   0.231834988   0.666670719
   0.565129730   0.565129729   0.999999995
   0.565170162   0.565170163   0.333330126
   0.565170163   0.565170163   0.666669882
   0.565495627   0.898293613   0.999999997
   0.565138063   0.898472051   0.333353800
   0.565138062   0.898472051   0.666646190
   0.898254805   0.232240267   0.999999996
   0.898493682   0.232118593   0.333629583
   0.898493679   0.232118590   0.666370431
   0.898293612   0.565495626   0.999999997
   0.898472054   0.565138064   0.333353807
   0.898472052   0.565138061   0.666646189
   0.893428957   0.893428954   0.999999995
   0.898323537   0.898323538   0.334143137
   0.898323538   0.898323538   0.665856858
   0.065039986   0.268572615   0.166983050
   0.065149496   0.268089607   0.499999996
   0.065039981   0.268572614   0.833016958
   0.065104136   0.601577243   0.166594289
   0.065201765   0.601510595   0.499999989
   0.065104134   0.601577244   0.833405715
   0.066681786   0.933211225   0.170375035
   0.065048660   0.935053332   0.499999988
   0.066681788   0.933211226   0.829624964
   0.398477313   0.268140311   0.166657473
   0.398503539   0.268167753   0.499999987
   0.398477309   0.268140314   0.833342526
   0.398456650   0.601513650   0.166686676
   0.398480325   0.601501213   0.499999989
   0.398456645   0.601513653   0.833313313
   0.398469360   0.934827246   0.166671843
   0.398481551   0.934820278   0.499999998
   0.398469359   0.934827248   0.833328158
   0.731930201   0.268065700   0.166660869
   0.731830050   0.268168802   0.499999988
   0.731930199   0.268065703   0.833339145
   0.732147429   0.602261036   0.165739437
   0.731816712   0.601468652   0.499999997
   0.732147426   0.602261037   0.834260569
   0.731574149   0.934176141   0.165971778
   0.731822465   0.934947340   0.499999995
   0.731574148   0.934176141   0.834028216
   0.268572613   0.065039985   0.166983050
   0.268089608   0.065149492   0.500000000
   0.268572614   0.065039985   0.833016961
   0.268140314   0.398477309   0.166657469
   0.268167751   0.398503539   0.499999991
   0.268140314   0.398477309   0.833342527
   0.268065700   0.731930201   0.166660869
   0.268168803   0.731830049   0.499999988
   0.268065700   0.731930201   0.833339151
   0.601577242   0.065104136   0.166594291
   0.601510594   0.065201767   0.499999992
   0.601577246   0.065104135   0.833405715
   0.601513651   0.398456647   0.166686673
   0.601501211   0.398480325   0.499999990
   0.601513655   0.398456647   0.833313313
   0.602261034   0.732147430   0.165739437
   0.601468652   0.731816712   0.499999997
   0.602261034   0.732147426   0.834260569
   0.933211223   0.066681785   0.170375034
   0.935053329   0.065048659   0.499999988
   0.933211224   0.066681788   0.829624963
   0.934827251   0.398469358   0.166671837
   0.934820278   0.398481548   0.499999995
   0.934827252   0.398469355   0.833328162
   0.934176140   0.731574150   0.165971778
   0.934947337   0.731822467   0.499999990
   0.934176141   0.731574149   0.834028219
H107LiMg53
   1.00000000
   13.503259540   0.000037877  -0.000000000
   0.000037877   13.503259540  -0.000000000
  -0.000000000  -0.000000000   9.029734153
  Li  Mg  H
  1  53  107
Direct configuration=     3
   0.000179380   0.000179379   0.999999995
   0.999921348   0.999921347   0.328025802
   0.999921350   0.999921350   0.671974234
   0.000029008   0.332975726   0.999999993
   0.999982939   0.333202441   0.333273731
   0.999982941   0.333202442   0.666726266
   0.000271039   0.666856976   0.000000000
   0.999939251   0.666751460   0.333319025
   0.999939251   0.666751461   0.666680993
   0.332975722   0.000029012   0.999999995
   0.333202441   0.999982940   0.333273736
   0.333202446   0.999982942   0.666726256
   0.333304241   0.333304246   0.999999992
   0.333260234   0.333260236   0.333280235
   0.333260232   0.333260231   0.666719792
   0.333227607   0.666793007   0.999999984
   0.333286894   0.666694365   0.333367495
   0.333286897   0.666694362   0.666632530
   0.666856976   0.000271034   0.999999998
   0.666751462   0.999939249   0.333319023
   0.666751466   0.999939250   0.666680992
   0.666793002   0.333227603   0.999999990
   0.666694364   0.333286895   0.333367497
   0.666694360   0.333286898   0.666632535
   0.664159141   0.664159141   0.999999993
   0.666638121   0.666638121   0.333710773
   0.666638122   0.666638120   0.666289240
   0.165012266   0.165012264   0.164460618
   0.166580563   0.166580564   0.499999995
   0.165012269   0.165012271   0.835539401
   0.166567322   0.500033562   0.166637281
   0.166635416   0.499994938   0.499999984
   0.166567320   0.500033564   0.833362727
   0.165000905   0.835011742   0.166168616
   0.166484071   0.833524171   0.499999992
   0.165000905   0.835011743   0.833831371
   0.500033564   0.166567320   0.166637279
   0.499994934   0.166635417   0.499999985
   0.500033563   0.166567321   0.833362727
   0.499996012   0.499996013   0.166579029
   0.500012786   0.500012786   0.499999980
   0.499996011   0.499996012   0.833420985
   0.499978429   0.833476126   0.166721388
   0.500043963   0.833437889   0.499999986
   0.499978430   0.833476125   0.833278628
   0.835011746   0.165000909   0.166168613
   0.833524170   0.166484071   0.499999995
   0.835011748   0.165000909   0.833831372
   0.833476124   0.499978431   0.166721383
   0.833437891   0.500043968   0.499999987
   0.833476122   0.499978434   0.833278628
   0.837041652   0.837041651   0.170331683
   0.833481890   0.833481888   0.499999998
   0.837041655   0.837041656   0.829668322
   0.103585393   0.103585392   0.999999987
   0.101817626   0.101817625   0.334245399
   0.101817624   0.101817622   0.665754611
   0.101530716   0.434828473   0.999999995
   0.101509854   0.434820257   0.333328611
   0.101509854   0.434820253   0.666671399
   0.101715567   0.767805886   0.999999997
   0.101526519   0.767870680   0.333637643
   0.101526516   0.767870680   0.666362370
   0.434828471   0.101530717   0.999999994
   0.434820257   0.101509854   0.333328610
   0.434820253   0.101509852   0.666671401
   0.434832338   0.434832338   0.999999996
   0.434837024   0.434837023   0.333320454
   0.434837023   0.434837024   0.666679568
   0.434868532   0.768184029   0.999999994
   0.434841480   0.768161073   0.333328138
   0.434841480   0.768161072   0.666671884
   0.767805884   0.101715563   0.999999997
   0.767870680   0.101526517   0.333637645
   0.767870679   0.101526516   0.666362368
   0.768184029   0.434868532   0.999999994
   0.768161071   0.434841476   0.333328135
   0.768161071   0.434841474   0.666671883
   0.768194777   0.768194778   0.333104053
   0.768194777   0.768194776   0.666895946
   0.232694633   0.232694631   0.999999983
   0.231739058   0.231739057   0.333126900
   0.231739056   0.231739055   0.666873106
   0.231846323   0.565161738   0.999999994
   0.231831769   0.565158783   0.333329102
   0.231831773   0.565158782   0.666670905
   0.232245128   0.898242378   0.999999996
   0.232134759   0.898481389   0.333647868
   0.232134758   0.898481389   0.666352146
   0.565161739   0.231846322   0.999999992
   0.565158783   0.231831770   0.333329104
   0.565158786   0.231831773   0.666670907
   0.565047272   0.565047272   0.999999995
   0.565171975   0.565171977   0.333323041
   0.565171977   0.565171977   0.666676967
   0.565514977   0.898282921   0.999999997
   0.565137254   0.898471097   0.333355486
   0.565137251   0.898471096   0.666644505
   0.898242378   0.232245125   0.999999996
   0.898481390   0.232134761   0.333647869
   0.898481387   0.232134759   0.666352143
   0.898282919   0.565514977   0.999999997
   0.898471100   0.565137254   0.333355493
   0.898471098   0.565137252   0.666644503
   0.893234955   0.893234954   0.999999995
   0.898385718   0.898385720   0.334299331
   0.898385720   0.898385719   0.665700664
   0.065038843   0.268582454   0.166990721
   0.065144871   0.268092101   0.499999995
   0.065038838   0.268582454   0.833009287
   0.065096186   0.601584093   0.166591108
   0.065200337   0.601511125   0.499999990
   0.065096184   0.601584094   0.833408895
   0.066643086   0.933228951   0.170494359
   0.065012051   0.935088407   0.499999989
   0.066643088   0.933228951   0.829505639
   0.398481939   0.268140668   0.166661303
   0.398503904   0.268170193   0.499999988
   0.398481937   0.268140670   0.833338697
   0.398457708   0.601513191   0.166684695
   0.398478185   0.601502469   0.499999990
   0.398457704   0.601513194   0.833315295
   0.398467857   0.934829067   0.166668904
   0.398479305   0.934823867   0.499999998
   0.398467856   0.934829069   0.833331097
   0.731968152   0.268027082   0.166662850
   0.731829909   0.268168475   0.499999989
   0.731968151   0.268027084   0.833337164
   0.732174803   0.602299943   0.165693265
   0.731814588   0.601463771   0.499999997
   0.732174800   0.602299943   0.834306740
   0.731547170   0.934146086   0.165956886
   0.731822123   0.934954380   0.499999996
   0.731547170   0.934146086   0.834043109
   0.268582453   0.065038842   0.166990720
   0.268092102   0.065144867   0.500000000
   0.268582453   0.065038842   0.833009290
   0.268140671   0.398481936   0.166661299
   0.268170192   0.398503904   0.499999991
   0.268140670   0.398481937   0.833338697
   0.268027082   0.731968152   0.166662850
   0.268168476   0.731829908   0.499999988
   0.268027082   0.731968152   0.833337170
   0.601584091   0.065096186   0.166591110
   0.601511124   0.065200339   0.499999992
   0.601584096   0.065096186   0.833408895
   0.601513192   0.398457706   0.166684692
   0.601502466   0.398478186   0.499999991
   0.601513196   0.398457705   0.833315295
   0.602299940   0.732174805   0.165693265
   0.601463771   0.731814587   0.499999997
   0.602299941   0.732174801   0.834306741
   0.933228948   0.066643086   0.170494358
   0.935088404   0.065012049   0.499999988
   0.933228949   0.066643088   0.829505640
   0.934829072   0.398467854   0.166668898
   0.934823868   0.398479303   0.499999995
   0.934829073   0.398467851   0.833331101
   0.934146085   0.731547171   0.165956886
   0.934954377   0.731822124   0.499999991
   0.934146086   0.731547170   0.834043111
H107LiMg53
   1.00000000
   13.503743064   0.000094362  -0.000000001
   0.000094362   13.503743065  -0.000000000
  -0.000000000  -0.000000000   9.029439825
  Li  Mg  H
  1  53  107
Direct configuration=     4
   0.000556723   0.000556722   0.999999982
   0.000241259   0.000241264   0.329135098
   0.000241267   0.000241269   0.670864898
   0.000116402   0.333082898   0.999999985
   0.999966739   0.333239574   0.333539818
   0.999966745   0.333239577   0.666460163
   0.000299443   0.666647966   0.999999968
   0.999794224   0.666747870   0.333097687
   0.999794228   0.666747870   0.666902298
   0.333082906   0.000116395   0.999999970
   0.333239578   0.999966749   0.333539832
   0.333239591   0.999966738   0.666460167
   0.333501691   0.333501697   0.999999968
   0.333031062   0.333031068   0.333282349
   0.333031062   0.333031061   0.666717663
   0.332934670   0.667105125   0.999999971
   0.333118894   0.666845710   0.333210890
   0.333118866   0.666845701   0.666789082
   0.666647970   0.000299439   0.999999957
   0.666747875   0.999794218   0.333097675
   0.666747884   0.999794225   0.666902289
   0.667105129   0.332934699   0.999999965
   0.666845709   0.333118899   0.333210900
   0.666845693   0.333118864   0.666789089
   0.662552218   0.662552213   0.999999954
   0.666818909   0.666818908   0.333450747
   0.666818909   0.666818905   0.666549237
   0.164829735   0.164829738   0.165586732
   0.166944268   0.166944263   0.500000016
   0.164829736   0.164829739   0.834413292
   0.166509960   0.500056719   0.166607300
   0.166622652   0.499957073   0.500000033
   0.166509954   0.500056724   0.833392716
   0.165783541   0.834254957   0.166774568
   0.166202769   0.833880095   0.500000028
   0.165783545   0.834254961   0.833225469
   0.500056727   0.166509954   0.166607299
   0.499957061   0.166622648   0.500000032
   0.500056721   0.166509954   0.833392709
   0.499823856   0.499823855   0.166844217
   0.499974772   0.499974768   0.500000029
   0.499823857   0.499823856   0.833155825
   0.500154492   0.833512640   0.166593269
   0.500021611   0.833514274   0.500000018
   0.500154490   0.833512642   0.833406767
   0.834254976   0.165783546   0.166774600
   0.833880089   0.166202767   0.500000031
   0.834254965   0.165783546   0.833225472
   0.833512646   0.500154480   0.166593270
   0.833514270   0.500021611   0.500000026
   0.833512640   0.500154480   0.833406763
   0.838639796   0.838639798   0.174689977
   0.832896166   0.832896164   0.500000027
   0.838639804   0.838639805   0.825310038
   0.103259609   0.103259607   0.999999974
   0.101696922   0.101696920   0.334259873
   0.101696923   0.101696923   0.665740132
   0.101489122   0.434778490   0.999999981
   0.101512578   0.434826139   0.333330468
   0.101512583   0.434826140   0.666669514
   0.101899038   0.767842099   0.999999977
   0.101657247   0.767555499   0.333903506
   0.101657245   0.767555501   0.666096472
   0.434778491   0.101489128   0.999999983
   0.434826137   0.101512577   0.333330486
   0.434826147   0.101512586   0.666669514
   0.434928953   0.434928954   0.999999972
   0.434840005   0.434840005   0.333287132
   0.434840006   0.434840008   0.666712832
   0.434988384   0.768211810   0.999999975
   0.434956858   0.768184661   0.333301588
   0.434956874   0.768184676   0.666698410
   0.767842092   0.101899035   0.999999965
   0.767555501   0.101657246   0.333903499
   0.767555499   0.101657248   0.666096464
   0.768211808   0.434988381   0.999999973
   0.768184659   0.434956857   0.333301593
   0.768184687   0.434956889   0.666698405
   0.768690255   0.768690255   0.332750118
   0.768690259   0.768690256   0.667249856
   0.233013754   0.233013752   0.999999973
   0.231354940   0.231354941   0.332151586
   0.231354934   0.231354935   0.667848397
   0.231814147   0.565114941   0.999999983
   0.231782988   0.565098876   0.333321706
   0.231782994   0.565098876   0.666678270
   0.232290241   0.898058538   0.999999968
   0.232401502   0.898266723   0.333951005
   0.232401498   0.898266717   0.666048988
   0.565114937   0.231814138   0.999999984
   0.565098876   0.231782989   0.333321705
   0.565098882   0.231782992   0.666678273
   0.563589674   0.563589674   0.999999971
   0.565218640   0.565218639   0.333189787
   0.565218632   0.565218635   0.666810202
   0.565827095   0.898120142   0.999999979
   0.565133234   0.898464396   0.333383585
   0.565133231   0.898464393   0.666616393
   0.898058538   0.232290232   0.999999967
   0.898266719   0.232401502   0.333950991
   0.898266717   0.232401496   0.666048982
   0.898120141   0.565827094   0.999999981
   0.898464399   0.565133230   0.333383566
   0.898464391   0.565133229   0.666616395
   0.890343234   0.890343233   0.999999964
   0.899530111   0.899530110   0.337125293
   0.899530108   0.899530108   0.662874700
   0.065040252   0.268703150   0.167097320
   0.065078895   0.268132663   0.500000008
   0.065040251   0.268703145   0.832902690
   0.064973046   0.601684831   0.166540577
   0.065175176   0.601510020   0.500000021
   0.064973049   0.601684833   0.833459450
   0.065856412   0.933633413   0.172209278
   0.064417681   0.935660111   0.500000012
   0.065856403   0.933633425   0.827790742
   0.398576811   0.268144887   0.166733608
   0.398509267   0.268204022   0.500000014
   0.398576804   0.268144892   0.833266400
   0.398469730   0.601515753   0.166646455
   0.398447136   0.601519388   0.500000020
   0.398469729   0.601515757   0.833353559
   0.398456511   0.934851662   0.166617767
   0.398454291   0.934879690   0.500000020
   0.398456503   0.934851664   0.833382241
   0.732610230   0.267373103   0.166701449
   0.731843202   0.268147152   0.500000027
   0.732610230   0.267373110   0.833298570
   0.732638284   0.602907599   0.164970223
   0.731785733   0.601382091   0.500000020
   0.732638280   0.602907595   0.835029806
   0.731098901   0.933670123   0.165797680
   0.731822709   0.935058224   0.500000024
   0.731098902   0.933670124   0.834202346
   0.268703148   0.065040251   0.167097324
   0.268132640   0.065078908   0.499999972
   0.268703147   0.065040252   0.832902698
   0.268144888   0.398576809   0.166733607
   0.268204021   0.398509265   0.500000020
   0.268144891   0.398576805   0.833266399
   0.267373111   0.732610234   0.166701446
   0.268147160   0.731843199   0.500000028
   0.267373113   0.732610233   0.833298574
   0.601684831   0.064973046   0.166540577
   0.601510023   0.065175175   0.500000017
   0.601684838   0.064973045   0.833459452
   0.601515754   0.398469721   0.166646446
   0.601519383   0.398447141   0.500000020
   0.601515759   0.398469725   0.833353564
   0.602907594   0.732638286   0.164970225
   0.601382089   0.731785736   0.500000016
   0.602907597   0.732638275   0.835029807
   0.933633408   0.065856412   0.172209275
   0.935660111   0.064417678   0.500000008
   0.933633419   0.065856404   0.827790749
   0.934851650   0.398456536   0.166617773
   0.934879701   0.398454279   0.500000012
   0.934851652   0.398456529   0.833382241
   0.933670120   0.731098904   0.165797679
   0.935058219   0.731822715   0.500000013
   0.933670124   0.731098907   0.834202349
H107LiMg53
   1.00000000
   13.503796702   0.000102175  -0.000000001
   0.000102175   13.503796703  -0.000000000
  -0.000000000  -0.000000000   9.029412376
  Li  Mg  H
  1  53  107
Direct configuration=     5
   0.000595565   0.000595564   0.999999982
   0.000293956   0.000293961   0.329312825
   0.000293964   0.000293967   0.670687171
   0.000118966   0.333087895   0.999999984
   0.999965889   0.333249012   0.333547250
   0.999965896   0.333249015   0.666452733
   0.000298248   0.666640033   0.999999972
   0.999781381   0.666743002   0.333082268
   0.999781386   0.666743001   0.666917718
   0.333087901   0.000118959   0.999999973
   0.333249016   0.999965899   0.333547265
   0.333249027   0.999965888   0.666452731
   0.333524831   0.333524835   0.999999970
   0.333013451   0.333013455   0.333274536
   0.333013451   0.333013450   0.666725471
   0.332906742   0.667134643   0.999999973
   0.333104518   0.666860517   0.333203537
   0.333104491   0.666860508   0.666796432
   0.666640035   0.000298242   0.999999961
   0.666743006   0.999781375   0.333082255
   0.666743012   0.999781382   0.666917708
   0.667134647   0.332906770   0.999999969
   0.666860515   0.333104523   0.333203549
   0.666860499   0.333104488   0.666796439
   0.662432371   0.662432364   0.999999957
   0.666838325   0.666838323   0.333416452
   0.666838324   0.666838319   0.666583531
   0.164828471   0.164828474   0.165614216
   0.166968720   0.166968716   0.500000015