Mg28Ni4O32
   1.00000000
   8.440328702   0.000000000  -0.000000000
   0.000000000   8.440345623   0.000002058
  -0.000000000   0.000002058   8.440345623
  Ni  Mg  O
  4  28  32
Direct configuration=     1
   0.000000000   0.999965069   0.999950877
   0.000000000   0.500049123   0.500034931
   0.500000000   0.000046825   0.499953175
   0.500000000   0.249960248   0.250039752
   0.000000000   0.000010344   0.499989656
   0.000000000   0.499985509   0.000014491
   0.500000000   0.000084248   0.000086781
   0.500000000   0.499937760   0.000062240
   0.500000000   0.499913219   0.499915752
   0.000000000   0.250015381   0.249984619
   0.000000000   0.250009464   0.750030606
   0.000000000   0.749969394   0.249990536
   0.000000000   0.749992182   0.750007818
   0.500000000   0.249938202   0.749932499
   0.500000000   0.750067501   0.250061798
   0.500000000   0.750069973   0.749930027
   0.250059757   0.000061345   0.249973052
   0.249969760   0.999979151   0.750045684
   0.249964618   0.499935389   0.250079133
   0.249920944   0.500020207   0.749905114
   0.749940243   0.000061345   0.249973052
   0.750030240   0.999979151   0.750045684
   0.750035382   0.499935389   0.250079133
   0.750079056   0.500020207   0.749905114
   0.249964618   0.249920867   0.000064611
   0.250059757   0.250026948   0.499938655
   0.249920944   0.750094886   0.999979793
   0.249969760   0.749954316   0.500020849
   0.750035382   0.249920867   0.000064611
   0.749940243   0.250026948   0.499938655
   0.750079056   0.750094886   0.999979793
   0.750030240   0.749954316   0.500020849
   0.249852401   0.249954817   0.250045183
   0.250061514   0.249986716   0.749989688
   0.250061514   0.750010312   0.250013284
   0.250007844   0.750011961   0.749988039
   0.750147599   0.249954817   0.250045183
   0.749938486   0.249986716   0.749989688
   0.749938486   0.750010312   0.250013284
   0.749992156   0.750011961   0.749988039
   0.250241029   0.000001628   0.999994559
   0.249757430   0.000041318   0.499958682
   0.249915143   0.499990643   0.000009357
   0.250241029   0.500005441   0.499998372
   0.749758971   0.000001628   0.999994559
   0.750242570   0.000041318   0.499958682
   0.750084857   0.499990643   0.000009357
   0.749758971   0.500005441   0.499998372
   0.000000000   0.250237403   0.000060100
   0.000000000   0.249627212   0.499924332
   0.000000000   0.749781855   0.000008395
   0.000000000   0.750334928   0.499986705
   0.500000000   0.249884539   0.999830237
   0.500000000   0.250119066   0.500132907
   0.500000000   0.750105615   0.000063324
   0.500000000   0.749842479   0.499933426
   0.000000000   0.000075668   0.250372788
   0.000000000   0.000013295   0.749665072
   0.000000000   0.499939900   0.249762597
   0.000000000   0.499991605   0.750218145
   0.500000000   0.999867093   0.249880934
   0.500000000   0.000066574   0.750157521
   0.500000000   0.500169763   0.250115461
   0.500000000   0.499936676   0.749894385
Mg28Ni4O32
   1.00000000
   8.442007420   0.000000000  -0.000000000
   0.000000000   8.442111495   0.000013089
  -0.000000000   0.000013089   8.442111495
  Ni  Mg  O
  4  28  32
Direct configuration=     2
   0.000000000   0.999825079   0.999761656
   0.000000000   0.500238344   0.500174921
   0.500000000   0.000234071   0.499765929
   0.500000000   0.249796634   0.250203366
   0.000000000   0.000089448   0.499910552
   0.000000000   0.499905458   0.000094542
   0.500000000   0.000444395   0.000454594
   0.500000000   0.499683588   0.000316412
   0.500000000   0.499545406   0.499555605
   0.000000000   0.250043038   0.249956962
   0.000000000   0.250026736   0.750128405
   0.000000000   0.749871595   0.249973264
   0.000000000   0.749981798   0.750018202
   0.500000000   0.249675769   0.749650233
   0.500000000   0.750349767   0.250324231
   0.500000000   0.750366062   0.749633938
   0.250279523   0.000311305   0.249901216
   0.249834879   0.999915811   0.750205430
   0.249808705   0.499672153   0.250402441
   0.249616022   0.500083223   0.749512261
   0.749720477   0.000311305   0.249901216
   0.750165121   0.999915811   0.750205430
   0.750191295   0.499672153   0.250402441
   0.750383978   0.500083223   0.749512261
   0.249808705   0.249597559   0.000327847
   0.250279523   0.250098784   0.499688695
   0.249616022   0.750487739   0.999916777
   0.249834879   0.749794570   0.500084189
   0.750191295   0.249597559   0.000327847
   0.749720477   0.250098784   0.499688695
   0.750383978   0.750487739   0.999916777
   0.750165121   0.749794570   0.500084189
   0.249259342   0.249757798   0.250242202
   0.250291368   0.249924009   0.749940653
   0.250291368   0.750059347   0.250075991
   0.250022184   0.750073860   0.749926140
   0.750740658   0.249757798   0.250242202
   0.749708632   0.249924009   0.749940653
   0.749708632   0.750059347   0.250075991
   0.749977816   0.750073860   0.749926140
   0.251220110   0.000017517   0.999978435
   0.248822470   0.000221519   0.499778481
   0.249592653   0.499938404   0.000061596
   0.251220110   0.500021565   0.499982483
   0.748779890   0.000017517   0.999978435
   0.751177530   0.000221519   0.499778481
   0.750407347   0.499938404   0.000061596
   0.748779890   0.500021565   0.499982483
   0.000000000   0.251175898   0.000307876
   0.000000000   0.248127846   0.499616826
   0.000000000   0.748921080   0.000036047
   0.000000000   0.751686188   0.499938656
   0.500000000   0.249408571   0.999165436
   0.500000000   0.250571720   0.500650593
   0.500000000   0.750544357   0.000315487
   0.500000000   0.749235527   0.499667777
   0.000000000   0.000383174   0.251872154
   0.000000000   0.000061344   0.748313812
   0.000000000   0.499692124   0.248824102
   0.000000000   0.499963953   0.751078920
   0.500000000   0.999349407   0.249428280
   0.500000000   0.000332223   0.750764473
   0.500000000   0.500834564   0.250591429
   0.500000000   0.499684513   0.749455643
Mg28Ni4O32
   1.00000000
   8.442483594   0.000000000  -0.000000000
   0.000000000   8.442613203   0.000016547
  -0.000000000   0.000016547   8.442613203
  Ni  Mg  O
  4  28  32
Direct configuration=     3
   0.000000000   0.999815080   0.999754374
   0.000000000   0.500245626   0.500184920
   0.500000000   0.000246021   0.499753979
   0.500000000   0.249781203   0.250218797
   0.000000000   0.000126619   0.499873381
   0.000000000   0.499881747   0.000118253
   0.500000000   0.000486496   0.000494291
   0.500000000   0.499663063   0.000336937
   0.500000000   0.499505709   0.499513504
   0.000000000   0.250014024   0.249985976
   0.000000000   0.250009374   0.750112197
   0.000000000   0.749887803   0.249990626
   0.000000000   0.750000223   0.749999777
   0.500000000   0.249645967   0.749623158
   0.500000000   0.750376842   0.250354033
   0.500000000   0.750399598   0.749600402
   0.250276097   0.000330011   0.249929291
   0.249814779   0.999929546   0.750193859
   0.249786413   0.499651584   0.250428052
   0.249608725   0.500071650   0.749476797
   0.749723903   0.000330011   0.249929291
   0.750185221   0.999929546   0.750193859
   0.750213587   0.499651584   0.250428052
   0.750391275   0.500071650   0.749476797
   0.249786413   0.249571948   0.000348416
   0.250276097   0.250070709   0.499669989
   0.249608725   0.750523203   0.999928350
   0.249814779   0.749806141   0.500070454
   0.750213587   0.249571948   0.000348416
   0.749723903   0.250070709   0.499669989
   0.750391275   0.750523203   0.999928350
   0.750185221   0.749806141   0.500070454
   0.249221977   0.249731258   0.250268742
   0.250288787   0.249911031   0.749929685
   0.250288787   0.750070315   0.250088969
   0.250007863   0.750090924   0.749909076
   0.750778023   0.249731258   0.250268742
   0.749711213   0.249911031   0.749929685
   0.749711213   0.750070315   0.250088969
   0.749992137   0.750090924   0.749909076
   0.251287885   0.000027722   0.999983809
   0.248801559   0.000245849   0.499754151
   0.249590603   0.499921300   0.000078700
   0.251287885   0.500016191   0.499972278
   0.748712115   0.000027722   0.999983809
   0.751198441   0.000245849   0.499754151
   0.750409397   0.499921300   0.000078700
   0.748712115   0.500016191   0.499972278
   0.000000000   0.251217215   0.000329114
   0.000000000   0.248035787   0.499595423
   0.000000000   0.748884294   0.000033944
   0.000000000   0.751773559   0.499938525
   0.500000000   0.249370357   0.999139450
   0.500000000   0.250573755   0.500666602
   0.500000000   0.750584536   0.000330278
   0.500000000   0.749222225   0.499652555
   0.000000000   0.000404577   0.251964213
   0.000000000   0.000061475   0.748226441
   0.000000000   0.499670886   0.248782785
   0.000000000   0.499966056   0.751115706
   0.500000000   0.999333398   0.249426245
   0.500000000   0.000347445   0.750777775
   0.500000000   0.500860550   0.250629643
   0.500000000   0.499669722   0.749415464
Mg28Ni4O32
   1.00000000
   8.452918324   0.000000000   0.000000000
   0.000000000   8.453610487   0.000093232
   0.000000000   0.000093232   8.453610487
  Ni  Mg  O
  4  28  32
Direct configuration=     4
   0.000000000   0.999674467   0.999710585
   0.000000000   0.500289415   0.500325533
   0.500000000   0.000391432   0.499608568
   0.500000000   0.249530121   0.250469879
   0.000000000   0.000913442   0.499086558
   0.000000000   0.499400384   0.000599616
   0.500000000   0.001211603   0.001154816
   0.500000000   0.499364297   0.000635703
   0.500000000   0.498845184   0.498788397
   0.000000000   0.249334389   0.250665611
   0.000000000   0.249607849   0.749677600
   0.000000000   0.750322400   0.250392151
   0.000000000   0.750428006   0.749571994
   0.500000000   0.249134139   0.749194459
   0.500000000   0.750805541   0.250865861
   0.500000000   0.750976335   0.749023665
   0.250062479   0.000588243   0.250612171
   0.249453918   0.000277958   0.749820989
   0.249380289   0.499352353   0.250800922
   0.249655610   0.499774183   0.748929073
   0.749937521   0.000588243   0.250612171
   0.750546082   0.000277958   0.749820989
   0.750619711   0.499352353   0.250800922
   0.750344390   0.499774183   0.748929073
   0.249380289   0.249199078   0.000647647
   0.250062479   0.249387829   0.499411757
   0.249655610   0.751070927   0.000225817
   0.249453918   0.750179011   0.499722042
   0.750619711   0.249199078   0.000647647
   0.749937521   0.249387829   0.499411757
   0.750344390   0.751070927   0.000225817
   0.750546082   0.750179011   0.499722042
   0.248767485   0.249249840   0.250750160
   0.250060826   0.249648451   0.749700713
   0.250060826   0.750299287   0.250351549
   0.249673541   0.750448825   0.749551175
   0.751232515   0.249249840   0.250750160
   0.749939174   0.249648451   0.749700713
   0.749939174   0.750299287   0.250351549
   0.750326459   0.750448825   0.749551175
   0.252140306   0.000258408   0.000129653
   0.248959654   0.000682552   0.499317448
   0.249774183   0.499559988   0.000440012
   0.252140306   0.499870347   0.499741592
   0.747859694   0.000258408   0.000129653
   0.751040346   0.000682552   0.499317448
   0.750225817   0.499559988   0.000440012
   0.747859694   0.499870347   0.499741592
   0.000000000   0.251481628   0.000650124
   0.000000000   0.246962782   0.499320726
   0.000000000   0.748658529   0.999985099
   0.000000000   0.752856241   0.499945478
   0.500000000   0.248834752   0.999008099
   0.500000000   0.250286343   0.500668810
   0.500000000   0.751201826   0.000506930
   0.500000000   0.749353211   0.499473612
   0.000000000   0.000679274   0.253037218
   0.000000000   0.000054522   0.747143759
   0.000000000   0.499349876   0.248518372
   0.000000000   0.500014901   0.751341471
   0.500000000   0.999331190   0.249713657
   0.500000000   0.000526388   0.750646789
   0.500000000   0.500991901   0.251165248
   0.500000000   0.499493070   0.748798174
Mg28Ni4O32
   1.00000000
   8.461308631   0.000000000   0.000000000
   0.000000000   8.462457085   0.000155507
   0.000000000   0.000155507   8.462457085
  Ni  Mg  O
  4  28  32
Direct configuration=     5
   0.000000000   0.999612756   0.999742466
   0.000000000   0.500257534   0.500387244
   0.500000000   0.000425167   0.499574833
   0.500000000   0.249391120   0.250608880
   0.000000000   0.001435887   0.498564113
   0.000000000   0.499090324   0.000909676
   0.500000000   0.001616619   0.001505087
   0.500000000   0.499236912   0.000763088
   0.500000000   0.498494913   0.498383381
   0.000000000   0.248832435   0.251167565
   0.000000000   0.249320597   0.749324848
   0.000000000   0.750675152   0.250679403
   0.000000000   0.750744963   0.749255037
   0.500000000   0.248844215   0.748985945
   0.500000000   0.751014055   0.251155785
   0.500000000   0.751306667   0.748693333
   0.249847711   0.000681256   0.251123160
   0.249253837   0.000541986   0.749486420
   0.249138291   0.499219234   0.250962786
   0.249818961   0.499548307   0.748669871
   0.750152289   0.000681256   0.251123160
   0.750746163   0.000541986   0.749486420
   0.750861709   0.499219234   0.250962786
   0.750181039   0.499548307   0.748669871
   0.249138291   0.249037214   0.000780766
   0.249847711   0.248876840   0.499318744
   0.249818961   0.751330129   0.000451693
   0.249253837   0.750513580   0.499458014
   0.750861709   0.249037214   0.000780766
   0.750152289   0.248876840   0.499318744
   0.750181039   0.751330129   0.000451693
   0.750746163   0.750513580   0.499458014
   0.248656063   0.248958634   0.251041366
   0.249785038   0.249465793   0.749531132
   0.249785038   0.750468868   0.250534207
   0.249429837   0.750705586   0.749294414
   0.751343937   0.248958634   0.251041366
   0.750214962   0.249465793   0.749531132
   0.750214962   0.750468868   0.250534207
   0.750570163   0.750705586   0.749294414
   0.252332041   0.000434477   0.000263114
   0.249431254   0.000935105   0.499064895
   0.250048207   0.499304590   0.000695410
   0.252332041   0.499736886   0.499565523
   0.747667959   0.000434477   0.000263114
   0.750568746   0.000935105   0.499064895
   0.749951793   0.499304590   0.000695410
   0.747667959   0.499736886   0.499565523
   0.000000000   0.251239772   0.000798636
   0.000000000   0.246777508   0.499248752
   0.000000000   0.748875902   0.999969164
   0.000000000   0.753140591   0.499928928
   0.500000000   0.248651860   0.999186814
   0.500000000   0.249857970   0.500451084
   0.500000000   0.751483232   0.000557933
   0.500000000   0.749721709   0.499423518
   0.000000000   0.000751248   0.253222492
   0.000000000   0.000071072   0.746859409
   0.000000000   0.499201364   0.248760228
   0.000000000   0.500030836   0.751124098
   0.500000000   0.999548916   0.250142030
   0.500000000   0.000576482   0.750278291
   0.500000000   0.500813186   0.251348140
   0.500000000   0.499442067   0.748516768
Mg28Ni4O32
   1.00000000
   8.470739241   0.000000000   0.000000000
   0.000000000   8.472407136   0.000226030
   0.000000000   0.000226030   8.472407136
  Ni  Mg  O
  4  28  32
Direct configuration=     6
   0.000000000   0.999580641   0.999811326
   0.000000000   0.500188674   0.500419359
   0.500000000   0.000397480   0.499602520
   0.500000000   0.249288921   0.250711079
   0.000000000   0.001798339   0.498201661
   0.000000000   0.498877152   0.001122848
   0.500000000   0.001870915   0.001705989
   0.500000000   0.499192090   0.000807910
   0.500000000   0.498294011   0.498129085
   0.000000000   0.248421318   0.251578682
   0.000000000   0.249103336   0.749008207
   0.000000000   0.750991793   0.250896664
   0.000000000   0.751011648   0.748988352
   0.500000000   0.248650906   0.748889919
   0.500000000   0.751110081   0.251349094
   0.500000000   0.751535604   0.748464396
   0.249654521   0.000684301   0.251532870
   0.249149965   0.000751224   0.749160777
   0.248975042   0.499156745   0.251027314
   0.250066311   0.499370337   0.748551838
   0.750345479   0.000684301   0.251532870
   0.750850035   0.000751224   0.749160777
   0.751024958   0.499156745   0.251027314
   0.749933689   0.499370337   0.748551838
   0.248975042   0.248972686   0.000843255
   0.249654521   0.248467130   0.499315699
   0.250066311   0.751448162   0.000629663
   0.249149965   0.750839223   0.499248776
   0.751024958   0.248972686   0.000843255
   0.750345479   0.248467130   0.499315699
   0.749933689   0.751448162   0.000629663
   0.750850035   0.750839223   0.499248776
   0.248725771   0.248749292   0.251250708
   0.249456077   0.249307657   0.749367442
   0.249456077   0.750632558   0.250692343
   0.249239435   0.750934827   0.749065173
   0.751274229   0.248749292   0.251250708
   0.750543923   0.249307657   0.749367442
   0.750543923   0.750632558   0.250692343
   0.750760565   0.750934827   0.749065173
   0.252099763   0.000597931   0.000414591
   0.250082510   0.001090163   0.498909837
   0.250389864   0.499089535   0.000910465
   0.252099763   0.499585409   0.499402069
   0.747900237   0.000597931   0.000414591
   0.749917490   0.001090163   0.498909837
   0.749610136   0.499089535   0.000910465
   0.747900237   0.499585409   0.499402069
   0.000000000   0.250627008   0.000866846
   0.000000000   0.247108026   0.499299152
   0.000000000   0.749402770   0.000000395
   0.000000000   0.753002532   0.499856530
   0.500000000   0.248685413   0.999567130
   0.500000000   0.249295366   0.500082807
   0.500000000   0.751589435   0.000560583
   0.500000000   0.750274276   0.499418652
   0.000000000   0.000700848   0.252891974
   0.000000000   0.000143470   0.746997468
   0.000000000   0.499133154   0.249372992
   0.000000000   0.499999605   0.750597230
   0.500000000   0.999917193   0.250704634
   0.500000000   0.000581348   0.749725724
   0.500000000   0.500432870   0.251314587
   0.500000000   0.499439417   0.748410565
Mg28Ni4O32
   1.00000000
   8.477058890   0.000000000  -0.000000000
   0.000000000   8.479083173   0.000273664
  -0.000000000   0.000273664   8.479083173
  Ni  Mg  O
  4  28  32
Direct configuration=     7
   0.000000000   0.999578273   0.999852102
   0.000000000   0.500147898   0.500421727
   0.500000000   0.000346822   0.499653178
   0.500000000   0.249257448   0.250742552
   0.000000000   0.001758086   0.498241914
   0.000000000   0.498897156   0.001102844
   0.500000000   0.001859114   0.001673740
   0.500000000   0.499226543   0.000773457
   0.500000000   0.498326260   0.498140886
   0.000000000   0.248372042   0.251627958
   0.000000000   0.249109074   0.748942470
   0.000000000   0.751057530   0.250890926
   0.000000000   0.751057358   0.748942642
   0.500000000   0.248641267   0.748938825
   0.500000000   0.751061175   0.251358733
   0.500000000   0.751562307   0.748437693
   0.249647377   0.000619672   0.251553897
   0.249203215   0.000755755   0.749068532
   0.248976998   0.499166828   0.250996311
   0.250216478   0.499370203   0.748605037
   0.750352623   0.000619672   0.251553897
   0.750796785   0.000755755   0.749068532
   0.751023002   0.499166828   0.250996311
   0.749783522   0.499370203   0.748605037
   0.248976998   0.249003689   0.000833172
   0.249647377   0.248446103   0.499380328
   0.250216478   0.751394963   0.000629797
   0.249203215   0.750931468   0.499244245
   0.751023002   0.249003689   0.000833172
   0.750352623   0.248446103   0.499380328
   0.749783522   0.751394963   0.000629797
   0.750796785   0.750931468   0.499244245
   0.248870042   0.248728579   0.251271421
   0.249305213   0.249262893   0.749299136
   0.249305213   0.750700864   0.250737107
   0.249237998   0.751006223   0.748993777
   0.751129958   0.248728579   0.251271421
   0.750694787   0.249262893   0.749299136
   0.750694787   0.750700864   0.250737107
   0.750762002   0.751006223   0.748993777
   0.251652888   0.000650211   0.000495745
   0.250386573   0.001060539   0.498939461
   0.250540803   0.499045907   0.000954093
   0.251652888   0.499504255   0.499349789
   0.748347112   0.000650211   0.000495745
   0.749613427   0.001060539   0.498939461
   0.749459197   0.499045907   0.000954093
   0.748347112   0.499504255   0.499349789
   0.000000000   0.250084174   0.000843324
   0.000000000   0.247604871   0.499413594
   0.000000000   0.749844657   0.000074885
   0.000000000   0.752674012   0.499746485
   0.500000000   0.248875769   0.999852642
   0.500000000   0.248987569   0.499841774
   0.500000000   0.751503004   0.000549922
   0.500000000   0.750611122   0.499417206
   0.000000000   0.000586406   0.252395129
   0.000000000   0.000253515   0.747325988
   0.000000000   0.499156676   0.249915826
   0.000000000   0.499925115   0.750155343
   0.500000000   0.000158226   0.251012431
   0.500000000   0.000582794   0.749388878
   0.500000000   0.500147358   0.251124231
   0.500000000   0.499450078   0.748496996
Mg28Ni4O32
   1.00000000
   8.484274886   0.000000000  -0.000000000
   0.000000000   8.486717579   0.000328339
  -0.000000000   0.000328339   8.486717579
  Ni  Mg  O
  4  28  32
Direct configuration=     8
   0.000000000   0.999584462   0.999862093
   0.000000000   0.500137907   0.500415538
   0.500000000   0.000288761   0.499711239
   0.500000000   0.249249444   0.250750556
   0.000000000   0.001375206   0.498624794
   0.000000000   0.499112636   0.000887364
   0.500000000   0.001669668   0.001481064
   0.500000000   0.499303932   0.000696068
   0.500000000   0.498518936   0.498330332
   0.000000000   0.248609885   0.251390115
   0.000000000   0.249309283   0.749078020
   0.000000000   0.750921980   0.250690717
   0.000000000   0.750932970   0.749067030
   0.500000000   0.248750969   0.749093626
   0.500000000   0.750906374   0.251249031
   0.500000000   0.751467511   0.748532489
   0.249819368   0.000507399   0.251242916
   0.249386829   0.000586275   0.749163483
   0.249098382   0.499206897   0.250918322
   0.250294482   0.499526707   0.748771169
   0.750180632   0.000507399   0.251242916
   0.750613171   0.000586275   0.749163483
   0.750901618   0.499206897   0.250918322
   0.749705518   0.499526707   0.748771169
   0.249098382   0.249081678   0.000793103
   0.249819368   0.248757084   0.499492601
   0.250294482   0.751228831   0.000473293
   0.249386829   0.750836517   0.499413725
   0.750901618   0.249081678   0.000793103
   0.750180632   0.248757084   0.499492601
   0.749705518   0.751228831   0.000473293
   0.750613171   0.750836517   0.499413725
   0.249054070   0.248838056   0.251161944
   0.249300828   0.249295950   0.749289420
   0.249300828   0.750710580   0.250704050
   0.249406762   0.750970664   0.749029336
   0.750945930   0.248838056   0.251161944
   0.750699172   0.249295950   0.749289420
   0.750699172   0.750710580   0.250704050
   0.750593238   0.750970664   0.749029336
   0.251008549   0.000622484   0.000536400
   0.250365578   0.000883130   0.499116870
   0.250515988   0.499134610   0.000865390
   0.251008549   0.499463600   0.499377516
   0.748991451   0.000622484   0.000536400
   0.749634422   0.000883130   0.499116870
   0.749484012   0.499134610   0.000865390
   0.748991451   0.499463600   0.499377516
   0.000000000   0.249552007   0.000767916
   0.000000000   0.248209321   0.499576292
   0.000000000   0.750236453   0.000201441
   0.000000000   0.752250035   0.499570953
   0.500000000   0.249187977   0.000066453
   0.500000000   0.248866701   0.499698289
   0.500000000   0.751293158   0.000554118
   0.500000000   0.750779724   0.499380760
   0.000000000   0.000423708   0.251790679
   0.000000000   0.000429047   0.747749965
   0.000000000   0.499232084   0.250447993
   0.000000000   0.499798559   0.749763547
   0.500000000   0.000301711   0.251133299
   0.500000000   0.000619240   0.749220276
   0.500000000   0.499933547   0.250812023
   0.500000000   0.499445882   0.748706842
Mg28Ni4O32
   1.00000000
   8.490606085   0.000000000  -0.000000000
   0.000000000   8.493429383   0.000376591
  -0.000000000   0.000376591   8.493429383
  Ni  Mg  O
  4  28  32
Direct configuration=     9
   0.000000000   0.999596462   0.999826267
   0.000000000   0.500173733   0.500403538
   0.500000000   0.000265026   0.499734974
   0.500000000   0.249263857   0.250736143
   0.000000000   0.000765096   0.499234904
   0.000000000   0.499461915   0.000538085
   0.500000000   0.001372413   0.001198902
   0.500000000   0.499382033   0.000617967
   0.500000000   0.498801098   0.498627587
   0.000000000   0.249075639   0.250924361
   0.000000000   0.249649888   0.749396105
   0.000000000   0.750603895   0.250350112
   0.000000000   0.750662958   0.749337042
   0.500000000   0.248947453   0.749295718
   0.500000000   0.750704282   0.251052547
   0.500000000   0.751282325   0.748717675
   0.250124304   0.000400607   0.250677359
   0.249627627   0.000295156   0.749450316
   0.249298679   0.499254980   0.250835266
   0.250227576   0.499796652   0.748979851
   0.749875696   0.000400607   0.250677359
   0.750372373   0.000295156   0.749450316
   0.750701321   0.499254980   0.250835266
   0.749772424   0.499796652   0.748979851
   0.249298679   0.249164734   0.000745020
   0.250124304   0.249322641   0.499599393
   0.250227576   0.751020149   0.000203348
   0.249627627   0.750549684   0.499704844
   0.750701321   0.249164734   0.000745020
   0.749875696   0.249322641   0.499599393
   0.749772424   0.751020149   0.000203348
   0.750372373   0.750549684   0.499704844
   0.249178870   0.249052261   0.250947739
   0.249514953   0.249415519   0.749368726
   0.249514953   0.750631274   0.250584481
   0.249712069   0.750812639   0.749187361
   0.750821130   0.249052261   0.250947739
   0.750485047   0.249415519   0.749368726
   0.750485047   0.750631274   0.250584481
   0.750287931   0.750812639   0.749187361
   0.250506001   0.000500937   0.000493241
   0.249900128   0.000614026   0.499385974
   0.250240749   0.499352338   0.000647662
   0.250506001   0.499506759   0.499499063
   0.749493999   0.000500937   0.000493241
   0.750099872   0.000614026   0.499385974
   0.749759251   0.499352338   0.000647662
   0.749493999   0.499506759   0.499499063
   0.000000000   0.249370462   0.000677241
   0.000000000   0.248571532   0.499698138
   0.000000000   0.750301179   0.000306731
   0.000000000   0.751979314   0.499420261
   0.500000000   0.249455469   0.000050350
   0.500000000   0.249083798   0.499776699
   0.500000000   0.751069818   0.000578492
   0.500000000   0.750596306   0.499308749
   0.000000000   0.000301862   0.251428468
   0.000000000   0.000579739   0.748020686
   0.000000000   0.499322759   0.250629538
   0.000000000   0.499693269   0.749698821
   0.500000000   0.000223301   0.250916202
   0.500000000   0.000691251   0.749403694
   0.500000000   0.499949650   0.250544531
   0.500000000   0.499421508   0.748930182
Mg28Ni4O32
   1.00000000
   8.494262919   0.000000000  -0.000000000
   0.000000000   8.497321699   0.000405034
  -0.000000000   0.000405034   8.497321699
  Ni  Mg  O
  4  28  32
Direct configuration=     10
   0.000000000   0.999619176   0.999777858
   0.000000000   0.500222142   0.500380824
   0.500000000   0.000285618   0.499714382
   0.500000000   0.249298578   0.250701422
   0.000000000   0.000255620   0.499744380
   0.000000000   0.499762079   0.000237921
   0.500000000   0.001109207   0.000958262
   0.500000000   0.499428727   0.000571273
   0.500000000   0.499041738   0.498890793
   0.000000000   0.249508004   0.250491996
   0.000000000   0.249943560   0.749718194
   0.000000000   0.750281806   0.250056440
   0.000000000   0.750395536   0.749604464
   0.500000000   0.249144538   0.749454848
   0.500000000   0.750545152   0.250855462
   0.500000000   0.751090534   0.748909466
   0.250371840   0.000341961   0.250171689
   0.249794133   0.000055172   0.749768400
   0.249474652   0.499301712   0.250774775
   0.250061026   0.500025511   0.749139721
   0.749628160   0.000341961   0.250171689
   0.750205867   0.000055172   0.749768400
   0.750525348   0.499301712   0.250774775
   0.749938974   0.500025511   0.749139721
   0.249474652   0.249225225   0.000698288
   0.250371840   0.249828311   0.499658039
   0.250061026   0.750860279   0.999974489
   0.249794133   0.750231600   0.499944828
   0.750525348   0.249225225   0.000698288
   0.749628160   0.249828311   0.499658039
   0.749938974   0.750860279   0.999974489
   0.750205867   0.750231600   0.499944828
   0.249214892   0.249272210   0.250727790
   0.249846699   0.249571327   0.749512440
   0.249846699   0.750487560   0.250428673
   0.249996126   0.750603491   0.749396509
   0.750785108   0.249272210   0.250727790
   0.750153301   0.249571327   0.749512440
   0.750153301   0.750487560   0.250428673
   0.750003874   0.750603491   0.749396509
   0.250400457   0.000340269   0.000374996
   0.249276122   0.000385215   0.499614785
   0.249849524   0.499594342   0.000405658
   0.250400457   0.499625004   0.499659731
   0.749599543   0.000340269   0.000374996
   0.750723878   0.000385215   0.499614785
   0.750150476   0.499594342   0.000405658
   0.749599543   0.499625004   0.499659731
   0.000000000   0.249634133   0.000608337
   0.000000000   0.248555226   0.499722255
   0.000000000   0.750006374   0.000306171
   0.000000000   0.751945861   0.499401174
   0.500000000   0.249537226   0.999837080
   0.500000000   0.249529652   0.500018957
   0.500000000   0.750947020   0.000589599
   0.500000000   0.750153525   0.499255833
   0.000000000   0.000277745   0.251444774
   0.000000000   0.000598826   0.748054139
   0.000000000   0.499391663   0.250365867
   0.000000000   0.499693829   0.749993626
   0.500000000   0.999981043   0.250470348
   0.500000000   0.000744167   0.749846475
   0.500000000   0.500162920   0.250462774
   0.500000000   0.499410401   0.749052980
Mg28Ni4O32
   1.00000000
   8.495292274   0.000000000  -0.000000000
   0.000000000   8.498434194   0.000414103
  -0.000000000   0.000414103   8.498434194
  Ni  Mg  O
  4  28  32
Direct configuration=     11
   0.000000000   0.999652500   0.999763135
   0.000000000   0.500236865   0.500347500
   0.500000000   0.000314990   0.499685010
   0.500000000   0.249343827   0.250656173