H107LiMg53
   1.00000000
   13.503017307  -0.000000006  -0.000000000
  -0.000000006   13.503017383   0.000000000
  -0.000000000   0.000000000   9.029981471
  Li  Mg  H
  1  53  107
Direct configuration=     1
   0.999996374   0.000000812   1.000000000
   0.999992882   0.999995985   0.332889811
   0.999992882   0.999995985   0.667110190
   0.999993137   0.333312015   0.000000000
   0.999837425   0.333482459   0.332897736
   0.999837425   0.333482459   0.667102264
   0.999999395   0.666695592   1.000000000
   0.000001167   0.666678950   0.333326364
   0.000001167   0.666678950   0.666673636
   0.333302304   0.000002191   1.000000000
   0.333320282   0.999999823   0.333335483
   0.333320282   0.999999824   0.666664517
   0.333325142   0.333334246   1.000000000
   0.333331667   0.333334964   0.333320707
   0.333331667   0.333334964   0.666679293
   0.333326649   0.666673661   0.000000000
   0.333329555   0.666665432   0.333334512
   0.333329555   0.666665432   0.666665488
   0.666695709   0.999999553   1.000000000
   0.666680984   0.000003709   0.333325340
   0.666680984   0.000003709   0.666674660
   0.666673709   0.333327006   0.000000000
   0.666667560   0.333332277   0.333335723
   0.666667560   0.333332276   0.666664277
   0.666670731   0.666670785   0.000000000
   0.666669847   0.666672067   0.333329250
   0.666669847   0.666672067   0.666670750
   0.166543813   0.166527857   0.166442592
   0.166841179   0.166472966   0.500000000
   0.166543813   0.166527857   0.833557408
   0.166666614   0.499994641   0.166656807
   0.166676881   0.500023691   0.500000000
   0.166666614   0.499994640   0.833343194
   0.166525861   0.833473010   0.166618842
   0.166654276   0.833344988   0.500000000
   0.166525861   0.833473010   0.833381158
   0.500001457   0.166661809   0.166662133
   0.499999749   0.166665174   0.500000000
   0.500001457   0.166661809   0.833337867
   0.499999282   0.500000088   0.166668187
   0.500001012   0.500000963   0.500000000
   0.499999282   0.500000088   0.833331813
   0.499999618   0.833338223   0.166664234
   0.500000155   0.833335702   0.500000000
   0.499999618   0.833338223   0.833335766
   0.833479158   0.166521221   0.166614028
   0.833321067   0.166642919   0.500000000
   0.833479158   0.166521221   0.833385972
   0.833347580   0.499990296   0.166667651
   0.833310141   0.500025727   0.500000000
   0.833347580   0.499990296   0.833332350
   0.833465738   0.833466497   0.166479651
   0.833342212   0.833342096   0.500000000
   0.833465738   0.833466497   0.833520350
   0.101611011   0.101607204   0.000000000
   0.101444356   0.101521542   0.333476604
   0.101444356   0.101521542   0.666523395
   0.101447901   0.434780619   1.000000000
   0.101426009   0.434707709   0.333410413
   0.101426009   0.434707709   0.666589586
   0.101457385   0.768073766   0.000000000
   0.101437934   0.768083603   0.333355649
   0.101437934   0.768083603   0.666644351
   0.434774001   0.101440003   1.000000000
   0.434774526   0.101438892   0.333330129
   0.434774526   0.101438891   0.666669871
   0.434772848   0.434772108   0.000000000
   0.434773127   0.434772444   0.333333386
   0.434773127   0.434772444   0.666666614
   0.434771906   0.768104863   1.000000000
   0.434771946   0.768105307   0.333332621
   0.434771946   0.768105307   0.666667379
   0.768071315   0.101456877   0.000000000
   0.768089092   0.101442266   0.333362277
   0.768089092   0.101442266   0.666637723
   0.768098382   0.434774003   0.000000000
   0.768110006   0.434769411   0.333338313
   0.768110006   0.434769411   0.666661687
   0.768039675   0.768039833   0.000000000
   0.768109123   0.768109471   0.333326144
   0.768109123   0.768109471   0.666673855
   0.231962538   0.231959359   0.000000000
   0.231833386   0.231912691   0.333396942
   0.231833386   0.231912691   0.666603058
   0.231895326   0.565230059   1.000000000
   0.231889998   0.565222377   0.333338996
   0.231889998   0.565222377   0.666661004
   0.231926817   0.898541859   0.000000000
   0.231915871   0.898559452   0.333353873
   0.231915871   0.898559452   0.666646127
   0.565227722   0.231894799   1.000000000
   0.565227810   0.231894258   0.333332117
   0.565227810   0.231894258   0.666667884
   0.565227138   0.565227310   1.000000000
   0.565227397   0.565227759   0.333333186
   0.565227397   0.565227759   0.666666814
   0.565227077   0.898559736   1.000000000
   0.565228594   0.898561827   0.333332403
   0.565228594   0.898561827   0.666667597
   0.898535306   0.231918795   1.000000000
   0.898626306   0.231928527   0.333433847
   0.898626306   0.231928527   0.666566153
   0.898557627   0.565233570   0.000000000
   0.898564372   0.565223879   0.333338099
   0.898564372   0.565223879   0.666661901
   0.898391388   0.898390879   1.000000000
   0.898534065   0.898533258   0.333405821
   0.898534065   0.898533258   0.666594179
   0.065221365   0.268132073   0.166703340
   0.065221365   0.268132073   0.833296660
   0.065227627   0.601441357   0.166669203
   0.065225676   0.601436382   0.500000000
   0.065227627   0.601441357   0.833330797
   0.065359689   0.934639925   0.166966466
   0.065213802   0.934787018   0.500000000
   0.065359689   0.934639925   0.833033534
   0.398559470   0.268102579   0.166665813
   0.398559907   0.268106835   0.500000000
   0.398559470   0.268102579   0.833334187
   0.398561172   0.601439935   0.166666231
   0.398561760   0.601439716   0.500000000
   0.398561172   0.601439935   0.833333769
   0.398559749   0.934771863   0.166668674
   0.398561971   0.934770090   0.500000000
   0.398559749   0.934771863   0.833331326
   0.731897420   0.268102062   0.166666943
   0.731897619   0.268108262   0.500000000
   0.731897420   0.268102062   0.833333056
   0.731896999   0.601440437   0.166665221
   0.731894292   0.601438707   0.500000000
   0.731896999   0.601440437   0.833334779
   0.731862511   0.934781971   0.166691853
   0.731900479   0.934772505   0.500000000
   0.731862511   0.934781971   0.833308148
   0.268136769   0.065217492   0.166691994
   0.268095602   0.065229791   0.500000000
   0.268136769   0.065217491   0.833308006
   0.268106765   0.398556878   0.166663605
   0.268079554   0.398547188   0.500000000
   0.268106765   0.398556878   0.833336395
   0.268101154   0.731899516   0.166665713
   0.268105503   0.731895627   0.500000000
   0.268101154   0.731899516   0.833334287
   0.601439205   0.065228496   0.166667988
   0.601438330   0.065228478   0.500000000
   0.601439205   0.065228497   0.833332012
   0.601439224   0.398560573   0.166667168
   0.601437893   0.398561039   0.500000000
   0.601439224   0.398560573   0.833332832
   0.601441154   0.731896277   0.166666099
   0.601438856   0.731894139   0.500000000
   0.601441154   0.731896278   0.833333902
   0.934641914   0.065355985   0.166964642
   0.934799655   0.065240580   0.500000000
   0.934641914   0.065355985   0.833035358
   0.934763069   0.398568679   0.166675107
   0.934973168   0.398358863   0.500000000
   0.934763069   0.398568679   0.833324893
   0.934782600   0.731863267   0.166692769
   0.934773223   0.731902353   0.500000000
   0.934782600   0.731863267   0.833307231
H107LiMg53
   1.00000000
   13.503222386  -0.000001861  -0.000000000
  -0.000001861   13.503223313  -0.000000000
  -0.000000000  -0.000000000   9.029768646
  Li  Mg  H
  1  53  107
Direct configuration=     2
   0.999955060   0.000008987   0.999999998
   0.999918339   0.999963945   0.328275368
   0.999918339   0.999963939   0.671724643
   0.999938114   0.333083125   0.999999991
   0.998022430   0.335159970   0.328175579
   0.998022429   0.335159966   0.671824443
   0.999990208   0.666996177   0.999999988
   0.000015987   0.666806326   0.333270541
   0.000015986   0.666806327   0.666729464
   0.332985939   0.000026937   0.999999993
   0.333193528   0.999990440   0.333364940
   0.333193524   0.999990436   0.666635076
   0.333255107   0.333360860   0.999999990
   0.333295926   0.333342588   0.333198044
   0.333295928   0.333342592   0.666801969
   0.333247126   0.666758884   0.999999999
   0.333286124   0.666655312   0.333341022
   0.333286122   0.666655310   0.666658977
   0.666991771   0.999990364   0.999999989
   0.666827952   0.000044315   0.333259391
   0.666827955   0.000044315   0.666740600
   0.666753485   0.333249564   0.999999995
   0.666677853   0.333316540   0.333354250
   0.666677853   0.333316544   0.666645742
   0.666699494   0.666699825   0.999999989
   0.666709175   0.666739921   0.333287376
   0.666709172   0.666739918   0.666712672
   0.165224555   0.165037498   0.164129379
   0.168803692   0.164340611   0.499999997
   0.165224548   0.165037496   0.835870619
   0.166658541   0.499930329   0.166573699
   0.166786259   0.500279696   0.499999995
   0.166658544   0.499930334   0.833426314
   0.165067622   0.834917510   0.166146134
   0.166499115   0.833489927   0.499999998
   0.165067625   0.834917517   0.833853881
   0.500019390   0.166605188   0.166607991
   0.499996702   0.166646227   0.499999991
   0.500019390   0.166605191   0.833392019
   0.499991667   0.500001541   0.166679514
   0.500011099   0.500012992   0.499999999
   0.499991665   0.500001539   0.833320484
   0.499994587   0.833395381   0.166633751
   0.500004479   0.833364038   0.499999992
   0.499994588   0.833395381   0.833366291
   0.834999185   0.165015550   0.166116874
   0.833207172   0.166362903   0.499999993
   0.834999186   0.165015550   0.833883133
   0.833489711   0.499900779   0.166680704
   0.833117868   0.500251034   0.500000001
   0.833489713   0.499900777   0.833319289
   0.834887423   0.834896775   0.164541347
   0.833418276   0.833419176   0.499999994
   0.834887429   0.834896774   0.835458648
   0.103475309   0.103427584   0.999999999
   0.101534227   0.102483649   0.335028590
   0.101534228   0.102483650   0.664971419
   0.101600923   0.434922156   0.999999997
   0.101363602   0.434051047   0.334254776
   0.101363598   0.434051044   0.665745232
   0.101724817   0.767793167   0.999999993
   0.101501351   0.767897011   0.333610282
   0.101501349   0.767897010   0.666389711
   0.434843834   0.101510559   0.999999995
   0.434852720   0.101500374   0.333301278
   0.434852719   0.101500375   0.666698719
   0.434834814   0.434825899   0.000000002
   0.434838352   0.434830617   0.333337658
   0.434838354   0.434830617   0.666662352
   0.434828160   0.768157679   0.999999985
   0.434827136   0.768162195   0.333328962
   0.434827135   0.768162192   0.666671028
   0.767763052   0.101717742   0.999999998
   0.767967969   0.101557752   0.333687021
   0.767967968   0.101557749   0.666312986
   0.768085510   0.434853151   0.000000002
   0.768232202   0.434792041   0.333409772
   0.768232201   0.434792043   0.666590227
   0.767381040   0.767383700   0.999999996
   0.768229577   0.768233351   0.333196701
   0.768229578   0.768233352   0.666803308
   0.232649021   0.232608755   0.000000001
   0.231072599   0.232048280   0.334051791
   0.231072598   0.232048278   0.665948207
   0.231846176   0.565197133   0.999999992
   0.231776044   0.565099484   0.333402509
   0.231776043   0.565099484   0.666597487
   0.232213573   0.898266247   0.999999997
   0.232096901   0.898469545   0.333591003
   0.232096900   0.898469545   0.666409003
   0.565168552   0.231838732   0.999999993
   0.565170034   0.231831702   0.333323059
   0.565170033   0.231831703   0.666676950
   0.565164456   0.565167250   1.000000000
   0.565168607   0.565172534   0.333335107
   0.565168606   0.565172533   0.666664890
   0.565168545   0.898485409   0.999999990
   0.565183368   0.898507871   0.333326350
   0.565183368   0.898507869   0.666673642
   0.898188583   0.232121461   0.999999999
   0.899272444   0.232229881   0.334541352
   0.899272445   0.232229882   0.665458645
   0.898460334   0.565240933   0.000000001
   0.898543170   0.565113225   0.333407244
   0.898543168   0.565113224   0.666592755
   0.896551542   0.896545401   0.999999989
   0.898189074   0.898179774   0.334175586
   0.898189076   0.898179773   0.665824427
   0.065096540   0.268478670   0.167051516
   0.065096541   0.268478671   0.832948481
   0.065172550   0.601525076   0.166693903
   0.065140466   0.601474575   0.499999993
   0.065172552   0.601525077   0.833306111
   0.066668317   0.933330807   0.170215678
   0.064973391   0.935037531   0.499999998
   0.066668314   0.933330807   0.829784323
   0.398480906   0.268130435   0.166657478
   0.398483921   0.268181786   0.499999989
   0.398480906   0.268130435   0.833342516
   0.398500739   0.601512019   0.166657797
   0.398504469   0.601512289   0.499999997
   0.398500737   0.601512019   0.833342204
   0.398481151   0.934825300   0.166685712
   0.398500052   0.934812948   0.499999995
   0.398481148   0.934825301   0.833314298
   0.731917938   0.268078893   0.166671737
   0.731871614   0.268200225   0.499999997
   0.731917936   0.268078890   0.833328276
   0.731867464   0.601511571   0.166650956
   0.731824723   0.601504606   0.499999989
   0.731867460   0.601511576   0.833349033
   0.731459294   0.934940768   0.166960540
   0.731903728   0.934835509   0.499999999
   0.731459292   0.934940766   0.833039477
   0.268530040   0.065055507   0.166967988
   0.268113873   0.065128372   0.499999992
   0.268530043   0.065055507   0.833032007
   0.268179804   0.398453513   0.166629877
   0.267852099   0.398328254   0.499999995
   0.268179804   0.398453511   0.833370141
   0.268070879   0.731936316   0.166654085
   0.268163272   0.731848726   0.499999998
   0.268070881   0.731936313   0.833345925
   0.601506131   0.065179963   0.166676442
   0.601497056   0.065177878   0.499999999
   0.601506132   0.065179965   0.833323568
   0.601503092   0.398494434   0.166669452
   0.601490988   0.398496756   0.500000000
   0.601503094   0.398494432   0.833330556
   0.601522770   0.731856238   0.166659432
   0.601500047   0.731829247   0.499999992
   0.601522775   0.731856235   0.833340567
   0.933351428   0.066623755   0.170190080
   0.935193445   0.065297111   0.499999994
   0.933351429   0.066623755   0.829809920
   0.934680322   0.398627918   0.166652227
   0.937228904   0.396083907   0.499999993
   0.934680326   0.398627915   0.833347766
   0.934947517   0.731468742   0.166971986
   0.934843240   0.731925674   0.499999998
   0.934947517   0.731468742   0.833028019
H107LiMg53
   1.00000000
   13.503244169  -0.000004408  -0.000000000
  -0.000004408   13.503245083  -0.000000000
  -0.000000000  -0.000000000   9.029755264
  Li  Mg  H
  1  53  107
Direct configuration=     3
   0.999952001   0.000008623   0.999999998
   0.999919378   0.999973956   0.328378879
   0.999919379   0.999973951   0.671621134
   0.999956366   0.333076492   0.999999991
   0.997956611   0.335228816   0.328120363
   0.997956611   0.335228815   0.671879658
   0.999987824   0.666992068   0.999999987
   0.000018101   0.666805865   0.333284449
   0.000018100   0.666805867   0.666715558
   0.332995905   0.000028090   0.999999992
   0.333203215   0.999982132   0.333366268
   0.333203212   0.999982129   0.666633747
   0.333268466   0.333373738   0.999999991
   0.333274676   0.333329839   0.333205636
   0.333274678   0.333329843   0.666794375
   0.333235063   0.666772948   0.999999998
   0.333279136   0.666661852   0.333331678
   0.333279134   0.666661850   0.666668321
   0.666982674   0.999986519   0.999999990
   0.666825891   0.000045632   0.333273937
   0.666825894   0.000045632   0.666726056
   0.666762413   0.333236040   0.999999994
   0.666682596   0.333308710   0.333344154
   0.666682596   0.333308713   0.666655842
   0.666688634   0.666688795   0.999999989
   0.666718061   0.666753411   0.333285549
   0.666718057   0.666753407   0.666714495
   0.165224647   0.165037846   0.164223805
   0.168893374   0.164292574   0.499999995
   0.165224640   0.165037844   0.835776194
   0.166654735   0.499923201   0.166597260
   0.166788937   0.500281502   0.499999995
   0.166654737   0.499923205   0.833402753
   0.165120488   0.834863105   0.166181009
   0.166480416   0.833506327   0.499999997
   0.165120490   0.834863112   0.833819005
   0.500021530   0.166603905   0.166605925
   0.499996345   0.166646563   0.499999991
   0.500021531   0.166603908   0.833394084
   0.499991643   0.500002014   0.166678700
   0.500010514   0.500014600   0.499999998
   0.499991642   0.500002012   0.833321301
   0.499993721   0.833396903   0.166632793
   0.500006694   0.833364156   0.499999991
   0.499993722   0.833396904   0.833367245
   0.834953907   0.165070366   0.166175849
   0.833221446   0.166341831   0.499999992
   0.834953905   0.165070366   0.833824160
   0.833475879   0.499915426   0.166685192
   0.833157579   0.500213838   0.500000000
   0.833475881   0.499915424   0.833314802
   0.834887518   0.834897460   0.164615024
   0.833397221   0.833400200   0.499999994
   0.834887524   0.834897459   0.835384973
   0.103443253   0.103392336   0.999999999
   0.101503894   0.102501241   0.335047601
   0.101503894   0.102501241   0.664952409
   0.101595910   0.434919396   0.999999996
   0.101375118   0.434027343   0.334271269
   0.101375113   0.434027340   0.665728738
   0.101731559   0.767792117   0.999999993
   0.101511699   0.767884605   0.333624351
   0.101511697   0.767884604   0.666375643
   0.434839656   0.101506871   0.999999995
   0.434850934   0.101499298   0.333302853
   0.434850933   0.101499298   0.666697144
   0.434834860   0.434825649   0.000000001
   0.434837706   0.434830258   0.333337856
   0.434837706   0.434830256   0.666662154
   0.434831558   0.768158547   0.999999986
   0.434829293   0.768162430   0.333329136
   0.434829292   0.768162428   0.666670857
   0.767760946   0.101723864   0.999999997
   0.767961417   0.101572831   0.333700755
   0.767961416   0.101572829   0.666299252
   0.768088792   0.434856918   0.000000002
   0.768246104   0.434788225   0.333422495
   0.768246103   0.434788227   0.666577505
   0.767368720   0.767372169   0.999999996
   0.768248951   0.768252473   0.333147374
   0.768248952   0.768252475   0.666852635
   0.232665109   0.232621372   0.000000001
   0.231028203   0.232051542   0.334031375
   0.231028203   0.232051540   0.665968624
   0.231846648   0.565195666   0.999999992
   0.231769808   0.565091156   0.333401934
   0.231769807   0.565091156   0.666598063
   0.232214584   0.898259404   0.999999997
   0.232109252   0.898460489   0.333606241
   0.232109251   0.898460489   0.666393766
   0.565166181   0.231838265   0.999999993
   0.565167922   0.231830462   0.333323197
   0.565167921   0.231830463   0.666676813
   0.565163956   0.565167522   0.999999999
   0.565169796   0.565173472   0.333334964
   0.565169798   0.565173472   0.666665033
   0.565172469   0.898488128   0.999999991
   0.565184917   0.898508910   0.333326795
   0.565184917   0.898508909   0.666673198
   0.898180200   0.232123710   0.999999999
   0.899286416   0.232227505   0.334572077
   0.899286417   0.232227506   0.665427919
   0.898462728   0.565242494   0.000000001
   0.898550234   0.565101192   0.333420219
   0.898550233   0.565101191   0.666579780
   0.896581467   0.896575084   0.999999989
   0.898195397   0.898186261   0.334170636
   0.898195396   0.898186259   0.665829377
   0.065095353   0.268483390   0.167014507
   0.065095354   0.268483391   0.832985491
   0.065174598   0.601519737   0.166695134
   0.065133984   0.601476047   0.499999992
   0.065174600   0.601519737   0.833304879
   0.066626557   0.933375793   0.170283632
   0.064944820   0.935067820   0.499999997
   0.066626555   0.933375794   0.829716368
   0.398482816   0.268130843   0.166662167
   0.398483074   0.268183287   0.499999991
   0.398482816   0.268130844   0.833337828
   0.398501338   0.601511263   0.166657326
   0.398502898   0.601513287   0.499999997
   0.398501336   0.601511263   0.833342678
   0.398480353   0.934826560   0.166684922
   0.398493809   0.934821044   0.499999995
   0.398480351   0.934826562   0.833315087
   0.731957019   0.268042702   0.166676750
   0.731871474   0.268203408   0.499999996
   0.731957017   0.268042700   0.833323262
   0.731869231   0.601503987   0.166655941
   0.731818471   0.601508151   0.499999992
   0.731869227   0.601503992   0.833344049
   0.731456316   0.934939843   0.166963959
   0.731901851   0.934839357   0.499999999
   0.731456315   0.934939842   0.833036056
   0.268530894   0.065058902   0.166977057
   0.268188051   0.065052761   0.499999992
   0.268530897   0.065058902   0.833022939
   0.268180770   0.398458108   0.166632665
   0.267843215   0.398320822   0.499999995
   0.268180770   0.398458107   0.833367352
   0.268036587   0.731969982   0.166656175
   0.268161960   0.731848713   0.499999997
   0.268036589   0.731969979   0.833343835
   0.601506582   0.065179626   0.166674723
   0.601498421   0.065175942   0.499999998
   0.601506582   0.065179627   0.833325286
   0.601501832   0.398495674   0.166669671
   0.601491854   0.398496012   0.499999999
   0.601501833   0.398495672   0.833330336
   0.601517505   0.731855691   0.166662615
   0.601499140   0.731827441   0.499999992
   0.601517509   0.731855688   0.833337386
   0.933394245   0.066580609   0.170253490
   0.935230953   0.065278677   0.499999993
   0.933394247   0.066580608   0.829746510
   0.934629814   0.398678964   0.166517710
   0.937292819   0.396022796   0.499999993
   0.934629818   0.398678961   0.833482283
   0.934946086   0.731466231   0.166976137
   0.934846366   0.731923951   0.499999998
   0.934946086   0.731466230   0.833023868
H107LiMg53
   1.00000000
   13.503700278  -0.000052968  -0.000000001
  -0.000052968   13.503701087  -0.000000000
  -0.000000000  -0.000000000   9.029457514
  Li  Mg  H
  1  53  107
Direct configuration=     4
   0.999885502   0.000003709   0.999999994
   0.999920767   0.000153162   0.329341004
   0.999920771   0.000153156   0.670659027
   0.000281175   0.332897355   0.999999992
   0.996369765   0.336845035   0.326092576
   0.996369765   0.336845021   0.673907448
   0.999943050   0.666980405   0.999999974
   0.000058764   0.666819790   0.333516791
   0.000058755   0.666819796   0.666483237
   0.333106371   0.000053260   0.000000003
   0.333373051   0.999812801   0.333369413
   0.333373060   0.999812814   0.666630618
   0.333500419   0.333615711   0.999999976
   0.332874781   0.333099701   0.333312090
   0.332874780   0.333099669   0.666687907
   0.332990017   0.667053287   0.999999971
   0.333137628   0.666780976   0.333165833
   0.333137636   0.666780972   0.666834195
   0.666884147   0.999917331   0.999999985
   0.666816956   0.000079498   0.333516852
   0.666816946   0.000079489   0.666483166
   0.666952897   0.332967428   0.999999973
   0.666775436   0.333160124   0.333166233
   0.666775430   0.333160119   0.666833779
   0.666493740   0.666491460   0.999999985
   0.666889701   0.667016189   0.333242582
   0.666889691   0.667016187   0.666757394
   0.164941825   0.164731404   0.165408061
   0.170959700   0.162945909   0.499999961
   0.164941831   0.164731399   0.834591948
   0.166580639   0.499773283   0.167002893
   0.166859883   0.500365365   0.499999994
   0.166580632   0.499773284   0.832997112
   0.165739169   0.834214296   0.166719907
   0.166102091   0.833840803   0.499999976
   0.165739170   0.834214303   0.833280110
   0.500061416   0.166567520   0.166558394
   0.499988695   0.166647836   0.500000029
   0.500061417   0.166567517   0.833441585
   0.499988904   0.500011494   0.166672501
   0.500001788   0.500046588   0.499999967
   0.499988902   0.500011494   0.833327544
   0.499978910   0.833437861   0.166609653
   0.500043301   0.833378087   0.500000038
   0.499978893   0.833437874   0.833390349
   0.834490378   0.165717274   0.167141548
   0.833465384   0.165893760   0.499999971
   0.834490362   0.165717280   0.832858448
   0.833232685   0.500187728   0.166762064
   0.833855955   0.499569354   0.499999974
   0.833232689   0.500187724   0.833237982
   0.835189649   0.835213443   0.165504510
   0.833030274   0.833071662   0.499999985
   0.835189663   0.835213441   0.834495489
   0.103258027   0.103135581   0.999999979
   0.100967514   0.103031439   0.335753258
   0.100967513   0.103031435   0.664246776
   0.101542035   0.434904485   0.999999987
   0.101575706   0.433450770   0.334739441
   0.101575718   0.433450789   0.665260558
   0.101910305   0.767718362   0.999999987
   0.101718547   0.767615181   0.333944672
   0.101718546   0.767615184   0.666055339
   0.434780502   0.101455678   0.999999993
   0.434835505   0.101493790   0.333323805
   0.434835502   0.101493792   0.666676185
   0.434854061   0.434837048   0.999999981
   0.434831446   0.434828748   0.333343418
   0.434831438   0.434828739   0.666656604
   0.434901485   0.768184423   0.999999983
   0.434878269   0.768177565   0.333329017
   0.434878273   0.768177568   0.666670997
   0.767665508   0.101892823   0.999999990
   0.767811213   0.101874488   0.334032356
   0.767811216   0.101874492   0.665967682
   0.768131845   0.434939137   0.999999985
   0.768533704   0.434710181   0.333675231
   0.768533700   0.434710180   0.666324790
   0.767025587   0.767044040   0.999999985
   0.768622644   0.768622297   0.332216591
   0.768622644   0.768622302   0.667783413
   0.233081564   0.232963330   0.999999983
   0.230057817   0.232147141   0.333799206
   0.230057827   0.232147147   0.666200826
   0.231843340   0.565161741   0.999999993
   0.231634959   0.564916815   0.333404670
   0.231634958   0.564916812   0.666595339
   0.232289416   0.898077265   0.999999985
   0.232374589   0.898270751   0.333941704
   0.232374591   0.898270753   0.666058320
   0.565114116   0.231819511   0.999999989
   0.565119605   0.231795200   0.333320625
   0.565119594   0.231795196   0.666679383
   0.565137989   0.565156283   0.999999977
   0.565184378   0.565184194   0.333331589
   0.565184390   0.565184203   0.666668412
   0.565228752   0.898520689   0.999999989
   0.565204321   0.898516908   0.333335088
   0.565204312   0.898516899   0.666664907
   0.897952118   0.232199482   0.999999991
   0.899679723   0.232246665   0.335363729
   0.899679724   0.232246668   0.664636296
   0.898483812   0.565282638   0.999999982
   0.898686242   0.564849764   0.333680905
   0.898686240   0.564849764   0.666319081
   0.896740204   0.896727496   0.999999986
   0.898239266   0.898232395   0.334269799
   0.898239253   0.898232389   0.665730237
   0.065029015   0.268659344   0.166417030
   0.065029013   0.268659343   0.833582973
   0.065200474   0.601437205   0.166728562
   0.065000118   0.601502724   0.499999980
   0.065200481   0.601437199   0.833271463
   0.066187630   0.933877539   0.172215112
   0.064388691   0.935661291   0.499999984
   0.066187629   0.933877541   0.827784893
   0.398501842   0.268145115   0.166753495
   0.398443617   0.268222045   0.500000022
   0.398501838   0.268145120   0.833246525
   0.398486600   0.601525539   0.166643640
   0.398458979   0.601548255   0.499999985
   0.398486593   0.601525543   0.833356386
   0.398451834   0.934858484   0.166672018
   0.398388759   0.934959405   0.499999974
   0.398451861   0.934858438   0.833327969
   0.732657505   0.267397001   0.166775356
   0.731873199   0.268273583   0.499999980
   0.732657498   0.267397015   0.833224665
   0.731887266   0.601383619   0.166749019
   0.731709054   0.601575913   0.499999999
   0.731887264   0.601383617   0.833251011
   0.731319011   0.934956195   0.167086672
   0.731871641   0.934919494   0.499999994
   0.731319014   0.934956193   0.832913335
   0.268625752   0.065089081   0.167210425
   0.269550811   0.063647834   0.500000005
   0.268625723   0.065089104   0.832789579
   0.268215415   0.398523044   0.166680873
   0.267630011   0.398132800   0.499999978
   0.268215420   0.398523045   0.833319155
   0.267423730   0.732572352   0.166694556
   0.268141886   0.731843970   0.499999983
   0.267423732   0.732572349   0.833305454
   0.601528323   0.065164013   0.166647878
   0.601531767   0.065133268   0.499999979
   0.601528319   0.065164015   0.833352129
   0.601505934   0.398491425   0.166671358
   0.601519847   0.398468060   0.499999986
   0.601505945   0.398491416   0.833328668
   0.601436253   0.731834613   0.166721327
   0.601498200   0.731786675   0.499999989
   0.601436254   0.731834611   0.833278708
   0.933858309   0.066105387   0.172090291
   0.935984390   0.064968776   0.499999971
   0.933858313   0.066105387   0.827909720
   0.933689371   0.399624519   0.164005410
   0.938909118   0.394457984   0.499999982
   0.933689371   0.399624519   0.835994587
   0.934954533   0.731338347   0.167115055
   0.934912555   0.731901251   0.499999986
   0.934954531   0.731338348   0.832884954
H107LiMg53
   1.00000000
   13.503775508  -0.000060912  -0.000000001
  -0.000060912   13.503776258  -0.000000000
  -0.000000000  -0.000000000   9.029408973
  Li  Mg  H
  1  53  107
Direct configuration=     5
   0.999874592   0.000003498   0.999999994
   0.999916986   0.000175658   0.329370621
   0.999916990   0.000175654   0.670629407
   0.000318449   0.332859457   0.999999994
   0.996145736   0.337072230   0.325712496
   0.996145738   0.337072221   0.674287526
   0.999939183   0.666987596   0.999999976
   0.000062423   0.666819205   0.333529149
   0.000062413   0.666819208   0.666470879
   0.333103258   0.000055419   0.000000004
   0.333413049   0.999773818   0.333336219
   0.333413059   0.999773831   0.666663808
   0.333526516   0.333643568   0.999999979
   0.332824222   0.333075679   0.333312883
   0.332824221   0.333075649   0.666687112
   0.332951079   0.667093010   0.999999973
   0.333115108   0.666796118   0.333152298
   0.333115115   0.666796114   0.666847728
   0.666888259   0.999913546   0.999999988
   0.666817291   0.000085968   0.333531169
   0.666817281   0.000085961   0.666468848
   0.666988965   0.332929261   0.999999976
   0.666791073   0.333140581   0.333150923
   0.666791067   0.333140575   0.666849090
   0.666470355   0.666469098   0.999999988
   0.666910935   0.667049425   0.333236574
   0.666910924   0.667049422   0.666763394
   0.164866858   0.164660096   0.165418796
   0.171255970   0.162717814   0.499999962