Mg28Ni4O32
   1.00000000
   8.440366863   0.000000000   0.000000000
   0.000000000   8.440341862  -0.000005075
   0.000000000  -0.000005075   8.440341862
  Ni  Mg  O
  4  28  32
Direct configuration=     1
   0.000000000   0.000000000   0.000000000
   0.000000000   0.500000000   0.500000000
   0.000000000   0.250000000   0.250000000
   0.000000000   0.750000000   0.750000000
   0.000000000   0.000000000   0.500000000
   0.000000000   0.500000000   0.000000000
   0.500000000   0.000000000   0.000000000
   0.500000000   0.000000000   0.500000000
   0.500000000   0.500000000   0.000000000
   0.500000000   0.500000000   0.500000000
   0.000000000   0.250000000   0.750000000
   0.000000000   0.750000000   0.250000000
   0.500000000   0.250000000   0.250000000
   0.500000000   0.250000000   0.750000000
   0.500000000   0.750000000   0.250000000
   0.500000000   0.750000000   0.750000000
   0.249860004   0.000072049   0.249927951
   0.249860004   0.999927951   0.750072049
   0.249860004   0.499927951   0.250072049
   0.249860004   0.500072049   0.749927951
   0.750139996   0.000072049   0.249927951
   0.750139996   0.999927951   0.750072049
   0.750139996   0.499927951   0.250072049
   0.750139996   0.500072049   0.749927951
   0.249860004   0.249927951   0.000072049
   0.249860004   0.250072049   0.499927951
   0.249860004   0.750072049   0.999927951
   0.249860004   0.749927951   0.500072049
   0.750139996   0.249927951   0.000072049
   0.750139996   0.250072049   0.499927951
   0.750139996   0.750072049   0.999927951
   0.750139996   0.749927951   0.500072049
   0.250031498   0.250000000   0.250000000
   0.249906756   0.250000000   0.750000000
   0.249906756   0.750000000   0.250000000
   0.250031498   0.750000000   0.750000000
   0.749968502   0.250000000   0.250000000
   0.750093244   0.250000000   0.750000000
   0.750093244   0.750000000   0.250000000
   0.749968502   0.750000000   0.750000000
   0.250031498   0.000000000   0.000000000
   0.249906756   0.000000000   0.500000000
   0.249906756   0.500000000   0.000000000
   0.250031498   0.500000000   0.500000000
   0.749968502   0.000000000   0.000000000
   0.750093244   0.000000000   0.500000000
   0.750093244   0.500000000   0.000000000
   0.749968502   0.500000000   0.500000000
   0.000000000   0.250107400   0.999892600
   0.000000000   0.249892600   0.500107400
   0.000000000   0.749892600   0.000107400
   0.000000000   0.750107400   0.499892600
   0.500000000   0.249925233   0.000074767
   0.500000000   0.250074767   0.499925233
   0.500000000   0.750074767   0.999925233
   0.500000000   0.749925233   0.500074767
   0.000000000   0.999892600   0.250107400
   0.000000000   0.000107400   0.749892600
   0.000000000   0.500107400   0.249892600
   0.000000000   0.499892600   0.750107400
   0.500000000   0.000074767   0.249925233
   0.500000000   0.999925233   0.750074767
   0.500000000   0.499925233   0.250074767
   0.500000000   0.500074767   0.749925233
Mg28Ni4O32
   1.00000000
   8.443144069   0.000000000  -0.000000000
   0.000000000   8.442932566  -0.000046395
  -0.000000000  -0.000046395   8.442932566
  Ni  Mg  O
  4  28  32
Direct configuration=     2
   0.000000000   0.000000000   0.000000000
   0.000000000   0.500000000   0.500000000
   0.000000000   0.250000000   0.250000000
   0.000000000   0.750000000   0.750000000
   0.000000000   0.000000000   0.500000000
   0.000000000   0.500000000   0.000000000
   0.500000000   0.000000000   0.000000000
   0.500000000   0.000000000   0.500000000
   0.500000000   0.500000000   0.000000000
   0.500000000   0.500000000   0.500000000
   0.000000000   0.250000000   0.750000000
   0.000000000   0.750000000   0.250000000
   0.500000000   0.250000000   0.250000000
   0.500000000   0.250000000   0.750000000
   0.500000000   0.750000000   0.250000000
   0.500000000   0.750000000   0.750000000
   0.248925789   0.000508191   0.249491809
   0.248925789   0.999491809   0.750508191
   0.248925789   0.499491809   0.250508191
   0.248925789   0.500508191   0.749491809
   0.751074211   0.000508191   0.249491809
   0.751074211   0.999491809   0.750508191
   0.751074211   0.499491809   0.250508191
   0.751074211   0.500508191   0.749491809
   0.248925789   0.249491809   0.000508191
   0.248925789   0.250508191   0.499491809
   0.248925789   0.750508191   0.999491809
   0.248925789   0.749491809   0.500508191
   0.751074211   0.249491809   0.000508191
   0.751074211   0.250508191   0.499491809
   0.751074211   0.750508191   0.999491809
   0.751074211   0.749491809   0.500508191
   0.250123239   0.250000000   0.250000000
   0.249301135   0.250000000   0.750000000
   0.249301135   0.750000000   0.250000000
   0.250123239   0.750000000   0.750000000
   0.749876761   0.250000000   0.250000000
   0.750698865   0.250000000   0.750000000
   0.750698865   0.750000000   0.250000000
   0.749876761   0.750000000   0.750000000
   0.250123239   0.000000000   0.000000000
   0.249301135   0.000000000   0.500000000
   0.249301135   0.500000000   0.000000000
   0.250123239   0.500000000   0.500000000
   0.749876761   0.000000000   0.000000000
   0.750698865   0.000000000   0.500000000
   0.750698865   0.500000000   0.000000000
   0.749876761   0.500000000   0.500000000
   0.000000000   0.250744469   0.999255531
   0.000000000   0.249255531   0.500744469
   0.000000000   0.749255531   0.000744469
   0.000000000   0.750744469   0.499255531
   0.500000000   0.249452538   0.000547462
   0.500000000   0.250547462   0.499452538
   0.500000000   0.750547462   0.999452538
   0.500000000   0.749452538   0.500547462
   0.000000000   0.999255531   0.250744469
   0.000000000   0.000744469   0.749255531
   0.000000000   0.500744469   0.249255531
   0.000000000   0.499255531   0.750744469
   0.500000000   0.000547462   0.249452538
   0.500000000   0.999452538   0.750547462
   0.500000000   0.499452538   0.250547462
   0.500000000   0.500547462   0.749452538
Mg28Ni4O32
   1.00000000
   8.443931836   0.000000000  -0.000000000
   0.000000000   8.443669506  -0.000060370
  -0.000000000  -0.000060370   8.443669506
  Ni  Mg  O
  4  28  32
Direct configuration=     3
   0.000000000   0.000000000   0.000000000
   0.000000000   0.500000000   0.500000000
   0.000000000   0.250000000   0.250000000
   0.000000000   0.750000000   0.750000000
   0.000000000   0.000000000   0.500000000
   0.000000000   0.500000000   0.000000000
   0.500000000   0.000000000   0.000000000
   0.500000000   0.000000000   0.500000000
   0.500000000   0.500000000   0.000000000
   0.500000000   0.500000000   0.500000000
   0.000000000   0.250000000   0.750000000
   0.000000000   0.750000000   0.250000000
   0.500000000   0.250000000   0.250000000
   0.500000000   0.250000000   0.750000000
   0.500000000   0.750000000   0.250000000
   0.500000000   0.750000000   0.750000000
   0.248779425   0.000538324   0.249461676
   0.248779425   0.999461676   0.750538324
   0.248779425   0.499461676   0.250538324
   0.248779425   0.500538324   0.749461676
   0.751220575   0.000538324   0.249461676
   0.751220575   0.999461676   0.750538324
   0.751220575   0.499461676   0.250538324
   0.751220575   0.500538324   0.749461676
   0.248779425   0.249461676   0.000538324
   0.248779425   0.250538324   0.499461676
   0.248779425   0.750538324   0.999461676
   0.248779425   0.749461676   0.500538324
   0.751220575   0.249461676   0.000538324
   0.751220575   0.250538324   0.499461676
   0.751220575   0.750538324   0.999461676
   0.751220575   0.749461676   0.500538324
   0.250032058   0.250000000   0.250000000
   0.249218921   0.250000000   0.750000000
   0.249218921   0.750000000   0.250000000
   0.250032058   0.750000000   0.750000000
   0.749967942   0.250000000   0.250000000
   0.750781079   0.250000000   0.750000000
   0.750781079   0.750000000   0.250000000
   0.749967942   0.750000000   0.750000000
   0.250032058   0.000000000   0.000000000
   0.249218921   0.000000000   0.500000000
   0.249218921   0.500000000   0.000000000
   0.250032058   0.500000000   0.500000000
   0.749967942   0.000000000   0.000000000
   0.750781079   0.000000000   0.500000000
   0.750781079   0.500000000   0.000000000
   0.749967942   0.500000000   0.500000000
   0.000000000   0.250777001   0.999222999
   0.000000000   0.249222999   0.500777001
   0.000000000   0.749222999   0.000777001
   0.000000000   0.750777001   0.499222999
   0.500000000   0.249402689   0.000597311
   0.500000000   0.250597311   0.499402689
   0.500000000   0.750597311   0.999402689
   0.500000000   0.749402689   0.500597311
   0.000000000   0.999222999   0.250777001
   0.000000000   0.000777001   0.749222999
   0.000000000   0.500777001   0.249222999
   0.000000000   0.499222999   0.750777001
   0.500000000   0.000597311   0.249402689
   0.500000000   0.999402689   0.750597311
   0.500000000   0.499402689   0.250597311
   0.500000000   0.500597311   0.749402689
Mg28Ni4O32
   1.00000000
   8.451971483   0.000000000  -0.000000000
   0.000000000   8.451195210  -0.000208622
  -0.000000000  -0.000208622   8.451195210
  Ni  Mg  O
  4  28  32
Direct configuration=     4
   0.000000000   0.000000000   1.000000000
   0.000000000   0.500000000   0.500000000
   0.000000000   0.250000000   0.250000000
   0.000000000   0.750000000   0.750000000
   0.000000000   0.000000000   0.500000000
   0.000000000   0.500000000   1.000000000
   0.500000000   0.000000000   1.000000000
   0.500000000   0.000000000   0.500000000
   0.500000000   0.500000000   1.000000000
   0.500000000   0.500000000   0.500000000
   0.000000000   0.250000000   0.750000000
   0.000000000   0.750000000   0.250000000
   0.500000000   0.250000000   0.250000000
   0.500000000   0.250000000   0.750000000
   0.500000000   0.750000000   0.250000000
   0.500000000   0.750000000   0.750000000
   0.247648784   0.000619701   0.249380299
   0.247648784   0.999380299   0.750619701
   0.247648784   0.499380299   0.250619701
   0.247648784   0.500619701   0.749380299
   0.752351216   0.000619701   0.249380299
   0.752351216   0.999380299   0.750619701
   0.752351216   0.499380299   0.250619701
   0.752351216   0.500619701   0.749380299
   0.247648784   0.249380299   0.000619701
   0.247648784   0.250619701   0.499380299
   0.247648784   0.750619701   0.999380299
   0.247648784   0.749380299   0.500619701
   0.752351216   0.249380299   0.000619701
   0.752351216   0.250619701   0.499380299
   0.752351216   0.750619701   0.999380299
   0.752351216   0.749380299   0.500619701
   0.248883060   0.250000000   0.250000000
   0.248619952   0.250000000   0.750000000
   0.248619952   0.750000000   0.250000000
   0.248883060   0.750000000   0.750000000
   0.751116940   0.250000000   0.250000000
   0.751380048   0.250000000   0.750000000
   0.751380048   0.750000000   0.250000000
   0.751116940   0.750000000   0.750000000
   0.248883060   0.000000000   1.000000000
   0.248619952   0.000000000   0.500000000
   0.248619952   0.500000000   1.000000000
   0.248883060   0.500000000   0.500000000
   0.751116940   0.000000000   1.000000000
   0.751380048   0.000000000   0.500000000
   0.751380048   0.500000000   1.000000000
   0.751116940   0.500000000   0.500000000
   0.000000000   0.250773877   0.999226123
   0.000000000   0.249226123   0.500773877
   0.000000000   0.749226123   0.000773877
   0.000000000   0.750773877   0.499226123
   0.500000000   0.249119799   0.000880201
   0.500000000   0.250880201   0.499119799
   0.500000000   0.750880201   0.999119799
   0.500000000   0.749119799   0.500880201
   0.000000000   0.999226123   0.250773877
   0.000000000   0.000773877   0.749226123
   0.000000000   0.500773877   0.249226123
   0.000000000   0.499226123   0.750773877
   0.500000000   0.000880201   0.249119799
   0.500000000   0.999119799   0.750880201
   0.500000000   0.499119799   0.250880201
   0.500000000   0.500880201   0.749119799
Mg28Ni4O32
   1.00000000
   8.457136017   0.000000000   0.000000000
   0.000000000   8.456029147  -0.000307804
   0.000000000  -0.000307804   8.456029147
  Ni  Mg  O
  4  28  32
Direct configuration=     5
   0.000000000   0.000000000   1.000000000
   0.000000000   0.500000000   0.500000000
   0.000000000   0.250000000   0.250000000
   0.000000000   0.750000000   0.750000000
   0.000000000   0.000000000   0.500000000
   0.000000000   0.500000000   1.000000000
   0.500000000   0.000000000   1.000000000
   0.500000000   0.000000000   0.500000000
   0.500000000   0.500000000   1.000000000
   0.500000000   0.500000000   0.500000000
   0.000000000   0.250000000   0.750000000
   0.000000000   0.750000000   0.250000000
   0.500000000   0.250000000   0.250000000
   0.500000000   0.250000000   0.750000000
   0.500000000   0.750000000   0.250000000
   0.500000000   0.750000000   0.750000000
   0.247247736   0.000528621   0.249471379
   0.247247736   0.999471379   0.750528621
   0.247247736   0.499471379   0.250528621
   0.247247736   0.500528621   0.749471379
   0.752752264   0.000528621   0.249471379
   0.752752264   0.999471379   0.750528621
   0.752752264   0.499471379   0.250528621
   0.752752264   0.500528621   0.749471379
   0.247247736   0.249471379   0.000528621
   0.247247736   0.250528621   0.499471379
   0.247247736   0.750528621   0.999471379
   0.247247736   0.749471379   0.500528621
   0.752752264   0.249471379   0.000528621
   0.752752264   0.250528621   0.499471379
   0.752752264   0.750528621   0.999471379
   0.752752264   0.749471379   0.500528621
   0.248096709   0.250000000   0.250000000
   0.248420433   0.250000000   0.750000000
   0.248420433   0.750000000   0.250000000
   0.248096709   0.750000000   0.750000000
   0.751903291   0.250000000   0.250000000
   0.751579567   0.250000000   0.750000000
   0.751579567   0.750000000   0.250000000
   0.751903291   0.750000000   0.750000000
   0.248096709   0.000000000   1.000000000
   0.248420433   0.000000000   0.500000000
   0.248420433   0.500000000   1.000000000
   0.248096709   0.500000000   0.500000000
   0.751903291   0.000000000   1.000000000
   0.751579567   0.000000000   0.500000000
   0.751579567   0.500000000   1.000000000
   0.751903291   0.500000000   0.500000000
   0.000000000   0.250588106   0.999411894
   0.000000000   0.249411894   0.500588106
   0.000000000   0.749411894   0.000588106
   0.000000000   0.750588106   0.499411894
   0.500000000   0.249106413   0.000893587
   0.500000000   0.250893587   0.499106413
   0.500000000   0.750893587   0.999106413
   0.500000000   0.749106413   0.500893587
   0.000000000   0.999411894   0.250588106
   0.000000000   0.000588106   0.749411894
   0.000000000   0.500588106   0.249411894
   0.000000000   0.499411894   0.750588106
   0.500000000   0.000893587   0.249106413
   0.500000000   0.999106413   0.750893587
   0.500000000   0.499106413   0.250893587
   0.500000000   0.500893587   0.749106413
Mg28Ni4O32
   1.00000000
   8.462757935   0.000000000   0.000000000
   0.000000000   8.461284608  -0.000418759
   0.000000000  -0.000418759   8.461284608
  Ni  Mg  O
  4  28  32
Direct configuration=     6
   0.000000000   0.000000000   1.000000000
   0.000000000   0.500000000   0.500000000
   0.000000000   0.250000000   0.250000000
   0.000000000   0.750000000   0.750000000
   0.000000000   0.000000000   0.500000000
   0.000000000   0.500000000   1.000000000
   0.500000000   0.000000000   1.000000000
   0.500000000   0.000000000   0.500000000
   0.500000000   0.500000000   1.000000000
   0.500000000   0.500000000   0.500000000
   0.000000000   0.250000000   0.750000000
   0.000000000   0.750000000   0.250000000
   0.500000000   0.250000000   0.250000000
   0.500000000   0.250000000   0.750000000
   0.500000000   0.750000000   0.250000000
   0.500000000   0.750000000   0.750000000
   0.247156409   0.000348648   0.249651352
   0.247156409   0.999651352   0.750348648
   0.247156409   0.499651352   0.250348648
   0.247156409   0.500348648   0.749651352
   0.752843591   0.000348648   0.249651352
   0.752843591   0.999651352   0.750348648
   0.752843591   0.499651352   0.250348648
   0.752843591   0.500348648   0.749651352
   0.247156409   0.249651352   0.000348648
   0.247156409   0.250348648   0.499651352
   0.247156409   0.750348648   0.999651352
   0.247156409   0.749651352   0.500348648
   0.752843591   0.249651352   0.000348648
   0.752843591   0.250348648   0.499651352
   0.752843591   0.750348648   0.999651352
   0.752843591   0.749651352   0.500348648
   0.247381278   0.250000000   0.250000000
   0.248371173   0.250000000   0.750000000
   0.248371173   0.750000000   0.250000000
   0.247381278   0.750000000   0.750000000
   0.752618722   0.250000000   0.250000000
   0.751628827   0.250000000   0.750000000
   0.751628827   0.750000000   0.250000000
   0.752618722   0.750000000   0.750000000
   0.247381278   0.000000000   1.000000000
   0.248371173   0.000000000   0.500000000
   0.248371173   0.500000000   1.000000000
   0.247381278   0.500000000   0.500000000
   0.752618722   0.000000000   1.000000000
   0.751628827   0.000000000   0.500000000
   0.751628827   0.500000000   1.000000000
   0.752618722   0.500000000   0.500000000
   0.000000000   0.250329537   0.999670463
   0.000000000   0.249670463   0.500329537
   0.000000000   0.749670463   0.000329537
   0.000000000   0.750329537   0.499670463
   0.500000000   0.249225789   0.000774211
   0.500000000   0.250774211   0.499225789
   0.500000000   0.750774211   0.999225789
   0.500000000   0.749225789   0.500774211
   0.000000000   0.999670463   0.250329537
   0.000000000   0.000329537   0.749670463
   0.000000000   0.500329537   0.249670463
   0.000000000   0.499670463   0.750329537
   0.500000000   0.000774211   0.249225789
   0.500000000   0.999225789   0.750774211
   0.500000000   0.499225789   0.250774211
   0.500000000   0.500774211   0.749225789
Mg28Ni4O32
   1.00000000
   8.468448412   0.000000000   0.000000000
   0.000000000   8.466593339  -0.000532382
   0.000000000  -0.000532382   8.466593339
  Ni  Mg  O
  4  28  32
Direct configuration=     7
   0.000000000   0.000000000   1.000000000
   0.000000000   0.500000000   0.500000000
   0.000000000   0.250000000   0.250000000
   0.000000000   0.750000000   0.750000000
   0.000000000   0.000000000   0.500000000
   0.000000000   0.500000000   1.000000000
   0.500000000   0.000000000   0.000000000
   0.500000000   0.000000000   0.500000000
   0.500000000   0.500000000   0.000000000
   0.500000000   0.500000000   0.500000000
   0.000000000   0.250000000   0.750000000
   0.000000000   0.750000000   0.250000000
   0.500000000   0.250000000   0.250000000
   0.500000000   0.250000000   0.750000000
   0.500000000   0.750000000   0.250000000
   0.500000000   0.750000000   0.750000000
   0.247336285   0.000176805   0.249823195
   0.247336285   0.999823195   0.750176805
   0.247336285   0.499823195   0.250176805
   0.247336285   0.500176805   0.749823195
   0.752663715   0.000176805   0.249823195
   0.752663715   0.999823195   0.750176805
   0.752663715   0.499823195   0.250176805
   0.752663715   0.500176805   0.749823195
   0.247336285   0.249823195   0.000176805
   0.247336285   0.250176805   0.499823195
   0.247336285   0.750176805   0.999823195
   0.247336285   0.749823195   0.500176805
   0.752663715   0.249823195   0.000176805
   0.752663715   0.250176805   0.499823195
   0.752663715   0.750176805   0.999823195
   0.752663715   0.749823195   0.500176805
   0.246984696   0.250000000   0.250000000
   0.248434646   0.250000000   0.750000000
   0.248434646   0.750000000   0.250000000
   0.246984696   0.750000000   0.750000000
   0.753015304   0.250000000   0.250000000
   0.751565354   0.250000000   0.750000000
   0.751565354   0.750000000   0.250000000
   0.753015304   0.750000000   0.750000000
   0.246984696   0.000000000   0.000000000
   0.248434646   0.000000000   0.500000000
   0.248434646   0.500000000   0.000000000
   0.246984696   0.500000000   0.500000000
   0.753015304   0.000000000   0.000000000
   0.751565354   0.000000000   0.500000000
   0.751565354   0.500000000   0.000000000
   0.753015304   0.500000000   0.500000000
   0.000000000   0.250162910   0.999837090
   0.000000000   0.249837090   0.500162910
   0.000000000   0.749837090   0.000162910
   0.000000000   0.750162910   0.499837090
   0.500000000   0.249401297   0.000598703
   0.500000000   0.250598703   0.499401297
   0.500000000   0.750598703   0.999401297
   0.500000000   0.749401297   0.500598703
   0.000000000   0.999837090   0.250162910
   0.000000000   0.000162910   0.749837090
   0.000000000   0.500162910   0.249837090
   0.000000000   0.499837090   0.750162910
   0.500000000   0.000598703   0.249401297
   0.500000000   0.999401297   0.750598703
   0.500000000   0.499401297   0.250598703
   0.500000000   0.500598703   0.749401297
Mg28Ni4O32
   1.00000000
   8.478706639   0.000000000   0.000000000
   0.000000000   8.476148085  -0.000737179
   0.000000000  -0.000737179   8.476148085
  Ni  Mg  O
  4  28  32
Direct configuration=     8
   0.000000000   0.000000000   0.000000000
   0.000000000   0.500000000   0.500000000
   0.000000000   0.250000000   0.250000000
   0.000000000   0.750000000   0.750000000
   0.000000000   0.000000000   0.500000000
   0.000000000   0.500000000   0.000000000
   0.500000000   0.000000000   0.000000000
   0.500000000   0.000000000   0.500000000
   0.500000000   0.500000000   0.000000000
   0.500000000   0.500000000   0.500000000
   0.000000000   0.250000000   0.750000000
   0.000000000   0.750000000   0.250000000
   0.500000000   0.250000000   0.250000000
   0.500000000   0.250000000   0.750000000
   0.500000000   0.750000000   0.250000000
   0.500000000   0.750000000   0.750000000
   0.247831626   0.999975658   0.250024342
   0.247831626   0.000024342   0.749975658
   0.247831626   0.500024342   0.249975658
   0.247831626   0.499975658   0.750024342
   0.752168374   0.999975658   0.250024342
   0.752168374   0.000024342   0.749975658
   0.752168374   0.500024342   0.249975658
   0.752168374   0.499975658   0.750024342
   0.247831626   0.250024342   0.999975658
   0.247831626   0.249975658   0.500024342
   0.247831626   0.749975658   0.000024342
   0.247831626   0.750024342   0.499975658
   0.752168374   0.250024342   0.999975658
   0.752168374   0.249975658   0.500024342
   0.752168374   0.749975658   0.000024342
   0.752168374   0.750024342   0.499975658
   0.246801074   0.250000000   0.250000000
   0.248611944   0.250000000   0.750000000
   0.248611944   0.750000000   0.250000000
   0.246801074   0.750000000   0.750000000
   0.753198926   0.250000000   0.250000000
   0.751388056   0.250000000   0.750000000
   0.751388056   0.750000000   0.250000000
   0.753198926   0.750000000   0.750000000
   0.246801074   0.000000000   0.000000000
   0.248611944   0.000000000   0.500000000
   0.248611944   0.500000000   0.000000000
   0.246801074   0.500000000   0.500000000
   0.753198926   0.000000000   0.000000000
   0.751388056   0.000000000   0.500000000
   0.751388056   0.500000000   0.000000000
   0.753198926   0.500000000   0.500000000
   0.000000000   0.250103376   0.999896624
   0.000000000   0.249896624   0.500103376
   0.000000000   0.749896624   0.000103376
   0.000000000   0.750103376   0.499896624
   0.500000000   0.249674552   0.000325448
   0.500000000   0.250325448   0.499674552
   0.500000000   0.750325448   0.999674552
   0.500000000   0.749674552   0.500325448
   0.000000000   0.999896624   0.250103376
   0.000000000   0.000103376   0.749896624
   0.000000000   0.500103376   0.249896624
   0.000000000   0.499896624   0.750103376
   0.500000000   0.000325448   0.249674552
   0.500000000   0.999674552   0.750325448
   0.500000000   0.499674552   0.250325448
   0.500000000   0.500325448   0.749674552
Mg28Ni4O32
   1.00000000
   8.491350085   0.000000000   0.000000000
   0.000000000   8.487906740  -0.000989526
   0.000000000  -0.000989526   8.487906740
  Ni  Mg  O
  4  28  32
Direct configuration=     9
   0.000000000   0.000000000   0.000000000
   0.000000000   0.500000000   0.500000000
   0.000000000   0.250000000   0.250000000
   0.000000000   0.750000000   0.750000000
   0.000000000   0.000000000   0.500000000
   0.000000000   0.500000000   0.000000000
   0.500000000   0.000000000   0.000000000
   0.500000000   0.000000000   0.500000000
   0.500000000   0.500000000   0.000000000
   0.500000000   0.500000000   0.500000000
   0.000000000   0.250000000   0.750000000
   0.000000000   0.750000000   0.250000000
   0.500000000   0.250000000   0.250000000
   0.500000000   0.250000000   0.750000000
   0.500000000   0.750000000   0.250000000
   0.500000000   0.750000000   0.750000000
   0.248474891   0.999893929   0.250106071
   0.248474891   0.000106071   0.749893929
   0.248474891   0.500106071   0.249893929
   0.248474891   0.499893929   0.750106071
   0.751525109   0.999893929   0.250106071
   0.751525109   0.000106071   0.749893929
   0.751525109   0.500106071   0.249893929
   0.751525109   0.499893929   0.750106071
   0.248474891   0.250106071   0.999893929
   0.248474891   0.249893929   0.500106071
   0.248474891   0.749893929   0.000106071
   0.248474891   0.750106071   0.499893929
   0.751525109   0.250106071   0.999893929
   0.751525109   0.249893929   0.500106071
   0.751525109   0.749893929   0.000106071
   0.751525109   0.750106071   0.499893929
   0.247174474   0.250000000   0.250000000
   0.248856419   0.250000000   0.750000000
   0.248856419   0.750000000   0.250000000
   0.247174474   0.750000000   0.750000000
   0.752825526   0.250000000   0.250000000
   0.751143581   0.250000000   0.750000000
   0.751143581   0.750000000   0.250000000
   0.752825526   0.750000000   0.750000000
   0.247174474   0.000000000   0.000000000
   0.248856419   0.000000000   0.500000000
   0.248856419   0.500000000   0.000000000
   0.247174474   0.500000000   0.500000000
   0.752825526   0.000000000   0.000000000
   0.751143581   0.000000000   0.500000000
   0.751143581   0.500000000   0.000000000
   0.752825526   0.500000000   0.500000000
   0.000000000   0.250312824   0.999687176
   0.000000000   0.249687176   0.500312824
   0.000000000   0.749687176   0.000312824
   0.000000000   0.750312824   0.499687176
   0.500000000   0.249882886   0.000117114
   0.500000000   0.250117114   0.499882886
   0.500000000   0.750117114   0.999882886
   0.500000000   0.749882886   0.500117114
   0.000000000   0.999687176   0.250312824
   0.000000000   0.000312824   0.749687176
   0.000000000   0.500312824   0.249687176
   0.000000000   0.499687176   0.750312824
   0.500000000   0.000117114   0.249882886
   0.500000000   0.999882886   0.750117114
   0.500000000   0.499882886   0.250117114
   0.500000000   0.500117114   0.749882886
Mg28Ni4O32
   1.00000000
   8.500589201   0.000000000   0.000000000
   0.000000000   8.496477991  -0.001175718
   0.000000000  -0.001175718   8.496477991
  Ni  Mg  O
  4  28  32
Direct configuration=     10
   0.000000000   0.000000000   0.000000000
   0.000000000   0.500000000   0.500000000
   0.000000000   0.250000000   0.250000000
   0.000000000   0.750000000   0.750000000
   0.000000000   0.000000000   0.500000000
   0.000000000   0.500000000   0.000000000
   0.500000000   0.000000000   0.000000000
   0.500000000   0.000000000   0.500000000
   0.500000000   0.500000000   0.000000000
   0.500000000   0.500000000   0.500000000
   0.000000000   0.250000000   0.750000000
   0.000000000   0.750000000   0.250000000
   0.500000000   0.250000000   0.250000000
   0.500000000   0.250000000   0.750000000
   0.500000000   0.750000000   0.250000000
   0.500000000   0.750000000   0.750000000
   0.248893742   0.000003671   0.249996329
   0.248893742   0.999996329   0.750003671
   0.248893742   0.499996329   0.250003671
   0.248893742   0.500003671   0.749996329
   0.751106258   0.000003671   0.249996329
   0.751106258   0.999996329   0.750003671
   0.751106258   0.499996329   0.250003671
   0.751106258   0.500003671   0.749996329
   0.248893742   0.249996329   0.000003671
   0.248893742   0.250003671   0.499996329
   0.248893742   0.750003671   0.999996329
   0.248893742   0.749996329   0.500003671
   0.751106258   0.249996329   0.000003671
   0.751106258   0.250003671   0.499996329
   0.751106258   0.750003671   0.999996329
   0.751106258   0.749996329   0.500003671
   0.248019286   0.250000000   0.250000000
   0.249067028   0.250000000   0.750000000
   0.249067028   0.750000000   0.250000000
   0.248019286   0.750000000   0.750000000
   0.751980714   0.250000000   0.250000000
   0.750932972   0.250000000   0.750000000
   0.750932972   0.750000000   0.250000000
   0.751980714   0.750000000   0.750000000
   0.248019286   0.000000000   0.000000000
   0.249067028   0.000000000   0.500000000
   0.249067028   0.500000000   0.000000000
   0.248019286   0.500000000   0.500000000
   0.751980714   0.000000000   0.000000000
   0.750932972   0.000000000   0.500000000
   0.750932972   0.500000000   0.000000000
   0.751980714   0.500000000   0.500000000
   0.000000000   0.250689516   0.999310484
   0.000000000   0.249310484   0.500689516
   0.000000000   0.749310484   0.000689516
   0.000000000   0.750689516   0.499310484
   0.500000000   0.249868344   0.000131656
   0.500000000   0.250131656   0.499868344
   0.500000000   0.750131656   0.999868344
   0.500000000   0.749868344   0.500131656
   0.000000000   0.999310484   0.250689516
   0.000000000   0.000689516   0.749310484
   0.000000000   0.500689516   0.249310484
   0.000000000   0.499310484   0.750689516
   0.500000000   0.000131656   0.249868344
   0.500000000   0.999868344   0.750131656
   0.500000000   0.499868344   0.250131656
   0.500000000   0.500131656   0.749868344
Mg28Ni4O32
   1.00000000
   8.502764234   0.000000000   0.000000000
   0.000000000   8.498471402  -0.001223876
   0.000000000  -0.001223876   8.498471402
  Ni  Mg  O
  4  28  32
Direct configuration=     11
   0.000000000   0.000000000   0.000000000
   0.000000000   0.500000000   0.500000000
   0.000000000   0.250000000   0.250000000
   0.000000000   0.750000000   0.750000000