Mg28Ni4O32
   1.00000000
   8.440354952   0.000000000   0.000000756
   0.000000000   8.440345525  -0.000000000
   0.000000756  -0.000000000   8.440343103
  Ni  Mg  O
  4  28  32
Direct configuration=     1
   0.000041198   0.000000000   0.000083578
   0.000034863   0.000000000   0.499908279
   0.999945669   0.500000000   0.999929778
   0.249870237   0.000000000   0.250008543
   0.999988347   0.500000000   0.500015468
   0.499928124   0.000000000   0.000058267
   0.499924585   0.000000000   0.499942061
   0.500010855   0.500000000   0.999990006
   0.500026744   0.500000000   0.500014332
   0.000072503   0.249806818   0.249849529
   0.999986099   0.249928135   0.750153004
   0.000072503   0.750193182   0.249849529
   0.999986099   0.750071865   0.750153004
   0.499942659   0.249967064   0.250002829
   0.500019975   0.249987267   0.749993939
   0.499942659   0.750032936   0.250002829
   0.500019975   0.750012733   0.749993939
   0.249809686   0.000000000   0.750022454
   0.249884341   0.500000000   0.249861148
   0.249915928   0.500000000   0.750119402
   0.750200464   0.000000000   0.249968997
   0.750216762   0.000000000   0.750023285
   0.750065426   0.500000000   0.249894115
   0.750094532   0.500000000   0.750108790
   0.249785239   0.249927741   0.000067411
   0.249925650   0.249828924   0.499934798
   0.249785239   0.750072259   0.000067411
   0.249925650   0.750171076   0.499934798
   0.750216923   0.250012256   0.999976183
   0.750068978   0.249924598   0.500031188
   0.750216923   0.749987744   0.999976183
   0.750068978   0.750075402   0.500031188
   0.249953208   0.250087688   0.250025295
   0.249996685   0.249940016   0.749981157
   0.249953208   0.749912312   0.250025295
   0.249996685   0.750059984   0.749981157
   0.749978368   0.249937838   0.250008929
   0.749998076   0.249975348   0.749992288
   0.749978368   0.750062162   0.250008929
   0.749998076   0.750024652   0.749992288
   0.250031090   0.000000000   0.999928115
   0.250022069   0.000000000   0.500079257
   0.250157038   0.500000000   0.000093908
   0.249892977   0.500000000   0.499915930
   0.749904965   0.000000000   0.000044236
   0.749917138   0.000000000   0.499949171
   0.749849090   0.500000000   0.000021872
   0.750094686   0.500000000   0.499980235
   0.000025510   0.249880263   0.000016048
   0.000042894   0.250162860   0.499977471
   0.000025510   0.750119737   0.000016048
   0.000042894   0.749837140   0.499977471
   0.499999256   0.249982296   0.000022642
   0.499989452   0.249926556   0.499975685
   0.499999256   0.750017704   0.000022642
   0.499989452   0.750073444   0.499975685
   0.000004838   0.000000000   0.249958830
   0.000050931   0.000000000   0.750041108
   0.000098704   0.500000000   0.250277820
   0.000021340   0.500000000   0.749745347
   0.500129723   0.000000000   0.250004451
   0.499945125   0.000000000   0.749990091
   0.499929946   0.500000000   0.249960165
   0.499989632   0.500000000   0.750044169
Mg28Ni4O32
   1.00000000
   8.442555934  -0.000000000   0.000005322
  -0.000000000   8.442488335  -0.000000000
   0.000005322  -0.000000000   8.442471643
  Ni  Mg  O
  4  28  32
Direct configuration=     2
   0.000244289   0.000000000   0.000529805
   0.000200124   0.000000000   0.499419488
   0.999672462   0.500000000   0.999585869
   0.249230745   0.000000000   0.250044649
   0.999968707   0.500000000   0.500047884
   0.499564038   0.000000000   0.000360754
   0.499544392   0.000000000   0.499641422
   0.500035436   0.500000000   0.999958703
   0.500123024   0.500000000   0.500064959
   0.000453648   0.248817696   0.249100337
   0.999948803   0.249549812   0.750918143
   0.000453648   0.751182304   0.249100337
   0.999948803   0.750450188   0.750918143
   0.499651992   0.249789454   0.249988018
   0.500095586   0.249864743   0.749991772
   0.499651992   0.750210546   0.249988018
   0.500095586   0.750135257   0.749991772
   0.248815208   0.000000000   0.750159916
   0.249224048   0.500000000   0.249169075
   0.249464430   0.500000000   0.750705000
   0.751219507   0.000000000   0.249781463
   0.751340711   0.000000000   0.750166649
   0.750447820   0.500000000   0.249377792
   0.750604575   0.500000000   0.750642419
   0.248688144   0.249524390   0.000421281
   0.249488260   0.248975724   0.499592636
   0.248688144   0.750475610   0.000421281
   0.249488260   0.751024276   0.499592636
   0.751321170   0.250023267   0.999881964
   0.750471143   0.249531002   0.500164731
   0.751321170   0.749976733   0.999881964
   0.750471143   0.750468998   0.500164731
   0.249654258   0.250461280   0.250124530
   0.249919618   0.249614953   0.749919922
   0.249654258   0.749538720   0.250124530
   0.249919618   0.750385047   0.749919922
   0.749938511   0.249600104   0.250023445
   0.750059016   0.249835082   0.749984239
   0.749938511   0.750399896   0.250023445
   0.750059016   0.750164918   0.749984239
   0.250140365   0.000000000   0.999605466
   0.250065958   0.000000000   0.500453437
   0.250891567   0.500000000   0.000571410
   0.249393045   0.500000000   0.499495732
   0.749474246   0.000000000   0.000262029
   0.749568027   0.000000000   0.499695880
   0.749140676   0.500000000   0.000123914
   0.750538763   0.500000000   0.499893838
   0.000161051   0.249254667   0.000100786
   0.000266256   0.250911191   0.499860861
   0.000161051   0.750745333   0.000100786
   0.000266256   0.749088809   0.499860861
   0.499982452   0.249876579   0.000149398
   0.499923404   0.249530330   0.499841011
   0.499982452   0.750123421   0.000149398
   0.499923404   0.750469670   0.499841011
   0.000088345   0.000000000   0.249740701
   0.000303272   0.000000000   0.750255513
   0.000591215   0.500000000   0.251630037
   0.000120600   0.500000000   0.748499052
   0.500747139   0.000000000   0.250037281
   0.499665283   0.000000000   0.749925889
   0.499573844   0.500000000   0.249767312
   0.499951518   0.500000000   0.750260513
Mg28Ni4O32
   1.00000000
   8.443208720   0.000000000   0.000006566
  -0.000000000   8.443123580   0.000000000
   0.000006566   0.000000000   8.443103584
  Ni  Mg  O
  4  28  32
Direct configuration=     3
   0.000261295   0.000000000   0.000595328
   0.000207473   0.000000000   0.499346647
   0.999643675   0.500000000   0.999556366
   0.249179511   0.000000000   0.250043296
   0.000000898   0.500000000   0.500010785
   0.499525912   0.000000000   0.000399231
   0.499506936   0.000000000   0.499603599
   0.500010343   0.500000000   0.999972249
   0.500098434   0.500000000   0.500050917
   0.000505206   0.248704735   0.249034782
   0.999974609   0.249497995   0.750988641
   0.000505206   0.751295265   0.249034782
   0.999974609   0.750502005   0.750988641
   0.499621380   0.249762230   0.249961323
   0.500081149   0.249799726   0.750016159
   0.499621380   0.750237770   0.249961323
   0.500081149   0.750200274   0.750016159
   0.248683113   0.000000000   0.750194414
   0.249088882   0.500000000   0.249106343
   0.249395328   0.500000000   0.750752233
   0.751326716   0.000000000   0.249735404
   0.751484531   0.000000000   0.750203808
   0.750535136   0.500000000   0.249342069
   0.750685367   0.500000000   0.750682294
   0.248566103   0.249448864   0.000469518
   0.249388682   0.248896687   0.499547128
   0.248566103   0.750551136   0.000469518
   0.249388682   0.751103313   0.499547128
   0.751441339   0.249979602   0.999895149
   0.750560665   0.249478926   0.500157678
   0.751441339   0.750020398   0.999895149
   0.750560665   0.750521074   0.500157678
   0.249567217   0.250435567   0.250108095
   0.249855933   0.249561998   0.749945387
   0.249567217   0.749564433   0.250108095
   0.249855933   0.750438002   0.749945387
   0.750000576   0.249543421   0.249996605
   0.750130441   0.249803915   0.750012156
   0.750000576   0.750456579   0.249996605
   0.750130441   0.750196085   0.750012156
   0.250108647   0.000000000   0.999610243
   0.250005705   0.000000000   0.500467780
   0.250909873   0.500000000   0.000620370
   0.249377664   0.500000000   0.499456162
   0.749474942   0.000000000   0.000279885
   0.749599192   0.000000000   0.499671845
   0.749120117   0.500000000   0.000128825
   0.750554802   0.500000000   0.499893835
   0.000180415   0.249172698   0.000113890
   0.000294685   0.250918460   0.499844481
   0.000180415   0.750827302   0.000113890
   0.000294685   0.749081540   0.499844481
   0.499967618   0.249848003   0.000174390
   0.499903815   0.249465798   0.499815753
   0.499967618   0.750151997   0.000174390
   0.499903815   0.750534202   0.499815753
   0.000151763   0.000000000   0.249709692
   0.000323477   0.000000000   0.750284873
   0.000632346   0.500000000   0.251720547
   0.000125701   0.500000000   0.748409761
   0.500777813   0.000000000   0.250047836
   0.499632494   0.000000000   0.749909209
   0.499534699   0.500000000   0.249754655
   0.499957548   0.500000000   0.750277233
Mg28Ni4O32
   1.00000000
   8.450332806  -0.000000000   0.000019970
  -0.000000000   8.450055314   0.000000000
   0.000019970   0.000000000   8.450001623
  Ni  Mg  O
  4  28  32
Direct configuration=     4
   0.000351574   1.000000000   0.001125123
   0.000197983   1.000000000   0.498753307
   0.999448689   0.500000000   0.999392052
   0.248943019   0.000000000   0.250014048
   0.000396212   0.500000000   0.499547116
   0.499275803   1.000000000   0.000688097
   0.499277081   0.000000000   0.499323388
   0.499689988   0.500000000   0.000150000
   0.499742270   0.500000000   0.499854667
   0.000901961   0.247908491   0.248678573
   0.000308684   0.249089058   0.751391496
   0.000901961   0.752091509   0.248678573
   0.000308684   0.750910942   0.751391496
   0.499422565   0.249543027   0.249653500
   0.499865456   0.249080639   0.750307104
   0.499422565   0.750456973   0.249653500
   0.499865456   0.750919361   0.750307104
   0.247651997   0.000000000   0.750526317
   0.247837156   0.500000000   0.248742704
   0.248833236   0.500000000   0.750989403
   0.752024399   1.000000000   0.249291007
   0.752579771   1.000000000   0.750566000
   0.751374192   0.500000000   0.249212730
   0.751356415   0.500000000   0.750846421
   0.247730487   0.248766706   0.000846422
   0.248443028   0.248428150   0.499202275
   0.247730487   0.751233294   0.000846422
   0.248443028   0.751571850   0.499202275
   0.752248283   0.249446399   0.000104729
   0.751408581   0.249075433   0.500000273
   0.752248283   0.750553601   0.000104729
   0.751408581   0.750924567   0.500000273
   0.248681968   0.249896889   0.249847605
   0.249119124   0.249109771   0.750298314
   0.248681968   0.750103111   0.249847605
   0.249119124   0.750890229   0.750298314
   0.750799891   0.249047135   0.249657950
   0.750971597   0.249491875   0.750360650
   0.750799891   0.750952865   0.249657950
   0.750971597   0.750508125   0.750360650
   0.249660835   1.000000000   0.999867463
   0.249223278   1.000000000   0.500420407
   0.250658776   0.500000000   0.000931487
   0.249464489   0.500000000   0.499218622
   0.749740168   1.000000000   0.000377120
   0.750214355   1.000000000   0.499518466
   0.749316206   0.500000000   0.000144032
   0.750507592   0.500000000   0.499924844
   0.000336630   0.248548372   0.000231699
   0.000510693   0.250564733   0.499702962
   0.000336630   0.751451628   0.000231699
   0.000510693   0.749435267   0.499702962
   0.499789010   0.249543657   0.000410415
   0.499697147   0.248903320   0.499581957
   0.499789010   0.750456343   0.000410415
   0.499697147   0.751096680   0.499581957
   0.000877930   1.000000000   0.249454789
   0.000421338   1.000000000   0.750524170
   0.000833352   0.500000000   0.252011996
   0.000148225   0.500000000   0.748060546
   0.500788902   1.000000000   0.250143617
   0.499395621   1.000000000   0.749761199
   0.499263366   0.500000000   0.249706304
   0.500035575   0.500000000   0.750360704
Mg28Ni4O32
   1.00000000
   8.454816685   0.000000000   0.000028384
   0.000000000   8.454416343   0.000000000
   0.000028384   0.000000000   8.454342725
  Ni  Mg  O
  4  28  32
Direct configuration=     5
   0.000350453   1.000000000   0.001301425
   0.000140932   1.000000000   0.498551443
   0.999404501   0.500000000   0.999383528
   0.249009257   0.000000000   0.250000220
   0.000624159   0.500000000   0.499274917
   0.499232190   1.000000000   0.000769866
   0.499253940   1.000000000   0.499249664
   0.499490423   0.500000000   0.000256018
   0.499500581   0.500000000   0.499729548
   0.001012816   0.247717317   0.248685961
   0.000513284   0.248955007   0.751400224
   0.001012816   0.752282683   0.248685961
   0.000513284   0.751044993   0.751400224
   0.499393513   0.249476627   0.249489338
   0.499720531   0.248688014   0.750469831
   0.499393513   0.750523373   0.249489338
   0.499720531   0.751311986   0.750469831
   0.247314974   0.000000000   0.750672921
   0.247294779   0.500000000   0.248715382
   0.248651858   0.500000000   0.750970255
   0.752131797   1.000000000   0.249091243
   0.752914177   1.000000000   0.750730907
   0.751765219   0.500000000   0.249288091
   0.751586849   0.500000000   0.750776200
   0.247560730   0.248477803   0.000963361
   0.248024566   0.248384164   0.499109136
   0.247560730   0.751522197   0.000963361
   0.248024566   0.751615836   0.499109136
   0.752397204   0.249133589   0.000246105
   0.751788665   0.248947634   0.499878197
   0.752397204   0.750866411   0.000246105
   0.751788665   0.751052366   0.499878197
   0.248244632   0.249459974   0.249662778
   0.248695979   0.248937240   0.750537401
   0.248244632   0.750540026   0.249662778
   0.248695979   0.751062760   0.750537401
   0.751319287   0.248842544   0.249448747
   0.751465376   0.249323439   0.750575465
   0.751319287   0.751157456   0.249448747
   0.751465376   0.750676561   0.750575465
   0.249368289   1.000000000   0.000128634
   0.248708741   1.000000000   0.500281815
   0.250224171   0.500000000   0.000971434
   0.249626069   0.500000000   0.499194040
   0.750029271   1.000000000   0.000384536
   0.750732421   1.000000000   0.499484721
   0.749688065   0.500000000   0.000147610
   0.750381494   0.500000000   0.499936518
   0.000389275   0.248368779   0.000289423
   0.000574594   0.250136062   0.499635413
   0.000389275   0.751631221   0.000289423
   0.000574594   0.749863938   0.499635413
   0.499674311   0.249364687   0.000523295
   0.499581993   0.248667896   0.499473495
   0.499674311   0.750635313   0.000523295
   0.499581993   0.751332104   0.499473495
   0.001287811   1.000000000   0.249356465
   0.000407081   1.000000000   0.750619436
   0.000791648   0.500000000   0.251766142
   0.000163210   0.500000000   0.748221623
   0.500616898   1.000000000   0.250170080
   0.499332056   0.000000000   0.749719342
   0.499198702   0.500000000   0.249719313
   0.500064475   0.500000000   0.750360322
Mg28Ni4O32
   1.00000000
   8.459949810   0.000000000   0.000038161
   0.000000000   8.459405667   0.000000000
   0.000038161   0.000000000   8.459309429
  Ni  Mg  O
  4  28  32
Direct configuration=     6
   0.000318107   1.000000000   0.001343759
   0.000055937   1.000000000   0.498497198
   0.999409448   0.500000000   0.999427259
   0.249230538   0.000000000   0.250007211
   0.000794680   0.500000000   0.499065060
   0.499267195   1.000000000   0.000773719
   0.499316365   1.000000000   0.499258779
   0.499313752   0.500000000   0.000335046
   0.499275806   0.500000000   0.499625259
   0.001001588   0.247746919   0.248842945
   0.000680025   0.248919190   0.751239207
   0.001001588   0.752253081   0.248842945
   0.000680025   0.751080810   0.751239207
   0.499437198   0.249479183   0.249383354
   0.499592217   0.248383966   0.750586477
   0.499437198   0.750520817   0.249383354
   0.499592217   0.751616034   0.750586477
   0.247209992   0.000000000   0.750749679
   0.246993664   0.500000000   0.248807148
   0.248629379   0.500000000   0.750854693
   0.751998726   1.000000000   0.248981106
   0.752984119   1.000000000   0.750823848
   0.752019822   0.500000000   0.249456404
   0.751640065   0.500000000   0.750587897
   0.247652684   0.248317447   0.000982028
   0.247795895   0.248494538   0.499122863
   0.247652684   0.751682553   0.000982028
   0.247795895   0.751505462   0.499122863
   0.752281995   0.248885313   0.000362986
   0.752011527   0.248915493   0.499766850
   0.752281995   0.751114687   0.000362986
   0.752011527   0.751084507   0.499766850
   0.247952160   0.249011495   0.249491254
   0.248353868   0.248862386   0.750766766
   0.247952160   0.750988505   0.249491254
   0.248353868   0.751137614   0.750766766
   0.751811064   0.248727603   0.249269504
   0.751878591   0.249171987   0.750761593
   0.751811064   0.751272397   0.249269504
   0.751878591   0.750828013   0.750761593
   0.249114795   1.000000000   0.000434175
   0.248209831   1.000000000   0.500092431
   0.249584927   0.500000000   0.000898743
   0.249792964   0.500000000   0.499247476
   0.750366045   1.000000000   0.000370583
   0.751321553   1.000000000   0.499478759
   0.750225639   0.500000000   0.000170447
   0.750242124   0.500000000   0.499907720
   0.000403549   0.248363384   0.000340489
   0.000582648   0.249633683   0.499573300
   0.000403549   0.751636616   0.000340489
   0.000582648   0.750366317   0.499573300
   0.499559533   0.249190180   0.000606872
   0.499480839   0.248523027   0.499397094
   0.499559533   0.750809820   0.000606872
   0.499480839   0.751476973   0.499397094
   0.001613443   1.000000000   0.249297238
   0.000348300   1.000000000   0.750685659
   0.000627926   0.500000000   0.251244180
   0.000208728   0.500000000   0.748614246
   0.500354339   1.000000000   0.250151130
   0.499329894   0.000000000   0.749744832
   0.499205102   0.500000000   0.249739711
   0.500046029   0.500000000   0.750341446
Mg28Ni4O32
   1.00000000
   8.465375278   0.000000000   0.000048787
   0.000000000   8.464675438   0.000000000
   0.000048787   0.000000000   8.464554291
  Ni  Mg  O
  4  28  32
Direct configuration=     7
   0.000290267   1.000000000   0.001270915
   0.999988276   1.000000000   0.498574854
   0.999433087   0.500000000   0.999471657
   0.249489819   0.000000000   0.250046911
   0.000836567   0.500000000   0.499002047
   0.499337266   0.000000000   0.000722359
   0.499414239   0.000000000   0.499327307
   0.499218554   0.500000000   0.000350838
   0.499150668   0.500000000   0.499584550
   0.000893625   0.247901102   0.249029644
   0.000741822   0.248966044   0.751022319
   0.000893625   0.752098898   0.249029644
   0.000741822   0.751033956   0.751022319
   0.499520762   0.249544761   0.249384542
   0.499533385   0.248262174   0.750608344
   0.499520762   0.750455239   0.249384542
   0.499533385   0.751737826   0.750608344
   0.247279618   0.000000000   0.750736459
   0.246988292   0.500000000   0.248914990
   0.248749783   0.500000000   0.750740658
   0.751751031   0.000000000   0.248991480
   0.752865512   1.000000000   0.750818328
   0.752084350   0.500000000   0.249613287
   0.751525903   0.500000000   0.750382605
   0.247885145   0.248308221   0.000923614
   0.247814648   0.248639608   0.499220696
   0.247885145   0.751691779   0.000923614
   0.247814648   0.751360392   0.499220696
   0.752027170   0.248797109   0.000398534
   0.752027285   0.248954459   0.499721334
   0.752027170   0.751202891   0.000398534
   0.752027285   0.751045541   0.499721334
   0.247897093   0.248740673   0.249407748
   0.248213822   0.248885694   0.750904131
   0.247897093   0.751259327   0.249407748
   0.248213822   0.751114306   0.750904131
   0.752109341   0.248711195   0.249189058
   0.752067139   0.249066892   0.750849159
   0.752109341   0.751288805   0.249189058
   0.752067139   0.750933108   0.750849159
   0.249005223   1.000000000   0.000657688
   0.247883049   0.000000000   0.499956828
   0.248971055   0.500000000   0.000774718
   0.249833000   0.500000000   0.499320059
   0.750598660   1.000000000   0.000368688
   0.751778572   1.000000000   0.499470521
   0.750711212   0.500000000   0.000224202
   0.750194872   0.500000000   0.499820434
   0.000383760   0.248489687   0.000379082
   0.000550203   0.249304700   0.499519416
   0.000383760   0.751510313   0.000379082
   0.000550203   0.750695300   0.499519416
   0.499476596   0.249060650   0.000646538
   0.499419831   0.248475140   0.499367101
   0.499476596   0.750939350   0.000646538
   0.499419831   0.751524860   0.499367101
   0.001747463   1.000000000   0.249266080
   0.000290841   1.000000000   0.750733625
   0.000432050   0.500000000   0.250723917
   0.000295614   0.500000000   0.748995188
   0.500152736   0.000000000   0.250087875
   0.499367551   0.000000000   0.749839897
   0.499247388   0.500000000   0.249727342
   0.499964226   0.500000000   0.750341170
Mg28Ni4O32
   1.00000000
   8.475335598   0.000000000   0.000068709
   0.000000000   8.474345436   0.000000000
   0.000068709   0.000000000   8.474176288
  Ni  Mg  O
  4  28  32
Direct configuration=     8
   0.000282229   1.000000000   0.001070405
   0.999931665   1.000000000   0.498801053
   0.999459827   0.500000000   0.999500337
   0.249856867   0.000000000   0.250152647
   0.000737539   0.500000000   0.499091676
   0.499447069   0.000000000   0.000610582
   0.499567146   0.000000000   0.499473410
   0.499173972   0.500000000   0.000293487
   0.499089106   0.500000000   0.499603066
   0.000653157   0.248183950   0.249263366
   0.000700812   0.249106571   0.750707538
   0.000653157   0.751816050   0.249263366
   0.000700812   0.750893429   0.750707538
   0.499670714   0.249704046   0.249520545
   0.499537684   0.248286727   0.750524292
   0.499670714   0.750295954   0.249520545
   0.499537684   0.751713273   0.750524292
   0.247492638   0.000000000   0.750624789
   0.247269198   0.500000000   0.249018298
   0.249055694   0.500000000   0.750637146
   0.751348158   0.000000000   0.249136325
   0.752575310   0.000000000   0.750705316
   0.751992198   0.500000000   0.249773241
   0.751202094   0.500000000   0.750108747
   0.248287629   0.248439038   0.000781170
   0.248103748   0.248810379   0.499438521
   0.248287629   0.751560962   0.000781170
   0.248103748   0.751189621   0.499438521
   0.751586792   0.248867107   0.000342060
   0.751837994   0.249057013   0.499745113
   0.751586792   0.751132893   0.000342060
   0.751837994   0.750942987   0.499745113
   0.248096318   0.248600503   0.249411827
   0.248261293   0.249006941   0.750982921
   0.248096318   0.751399497   0.249411827
   0.248261293   0.750993059   0.750982921
   0.752293778   0.248775949   0.249201860
   0.752059033   0.248958392   0.750845273
   0.752293778   0.751224051   0.249201860
   0.752059033   0.751041608   0.750845273
   0.249034304   1.000000000   0.000856581
   0.247613477   0.000000000   0.499872498
   0.248151143   0.500000000   0.000573898
   0.249677148   0.500000000   0.499405705
   0.750771159   0.000000000   0.000405005
   0.752262900   0.000000000   0.499429609
   0.751290873   0.500000000   0.000343341
   0.750279625   0.500000000   0.499610751
   0.000323148   0.248775583   0.000424195
   0.000474121   0.249115109   0.499440589
   0.000323148   0.751224417   0.000424195
   0.000474121   0.750884891   0.499440589
   0.499393249   0.248924349   0.000661910
   0.499378099   0.248481422   0.499373464
   0.499393249   0.751075651   0.000661910
   0.499378099   0.751518578   0.499373464
   0.001721175   0.000000000   0.249221931
   0.000236582   0.000000000   0.750814886
   0.000153648   0.500000000   0.250087497
   0.000481636   0.500000000   0.749409289
   0.500002913   0.000000000   0.249953230
   0.499448403   0.000000000   0.750056642
   0.499319012   0.500000000   0.249638331
   0.499760154   0.500000000   0.750390994
Mg28Ni4O32
   1.00000000
   8.487754624  -0.000000000   0.000093940
  -0.000000000   8.486397384   0.000000000
   0.000093940   0.000000000   8.486165353
  Ni  Mg  O
  4  28  32
Direct configuration=     9
   0.000331142   0.000000000   0.000816290
   0.999953634   0.000000000   0.499099256
   0.999457409   0.500000000   0.999463426
   0.250107771   0.000000000   0.250297492
   0.000459908   0.500000000   0.499389176
   0.499531128   0.000000000   0.000490831
   0.499690112   0.000000000   0.499638002
   0.499252505   0.500000000   0.000148342
   0.499183524   0.500000000   0.499709466
   0.000375065   0.248450780   0.249368911
   0.000504750   0.249307507   0.750486846
   0.000375065   0.751549220   0.249368911
   0.000504750   0.750692493   0.750486846
   0.499822325   0.249903603   0.249797205
   0.499655044   0.248547674   0.750315958
   0.499822325   0.750096397   0.249797205
   0.499655044   0.751452326   0.750315958
   0.247767609   0.000000000   0.750435324
   0.247819336   0.500000000   0.249005093
   0.249434520   0.500000000   0.750657372
   0.751020191   0.000000000   0.249404051
   0.752240724   0.000000000   0.750495018
   0.751708255   0.500000000   0.249784968
   0.750768930   0.500000000   0.749941943
   0.248641776   0.248709987   0.000614658
   0.248643628   0.248869333   0.499695002
   0.248641776   0.751290013   0.000614658
   0.248643628   0.751130667   0.499695002
   0.751188976   0.249174453   0.000161794
   0.751439085   0.249179644   0.499874892
   0.751188976   0.750825547   0.000161794
   0.751439085   0.750820356   0.499874892
   0.248621980   0.248831120   0.249590513
   0.248633043   0.249198977   0.750879396
   0.248621980   0.751168880   0.249590513
   0.248633043   0.750801023   0.750879396
   0.752091099   0.248933079   0.249388869
   0.751670430   0.248937971   0.750657976
   0.752091099   0.751066921   0.249388869
   0.751670430   0.751062029   0.750657976
   0.249302844   0.000000000   0.000841984
   0.247672108   0.000000000   0.499979718
   0.247624143   0.500000000   0.000404416
   0.249269617   0.500000000   0.499430468
   0.750680162   0.000000000   0.000488558
   0.752398040   0.000000000   0.499357652
   0.751539445   0.500000000   0.000471003
   0.750539735   0.500000000   0.499349156
   0.000234549   0.249105029   0.000436640
   0.000383645   0.249367183   0.499382843
   0.000234549   0.750894971   0.000436640
   0.000383645   0.750632817   0.499382843
   0.499380893   0.248904642   0.000619012
   0.499414673   0.248572130   0.499450332
   0.499380893   0.751095358   0.000619012
   0.499414673   0.751427870   0.499450332
   0.001427205   0.000000000   0.249171594
   0.000243116   0.000000000   0.750911373
   0.999963859   0.500000000   0.249785557
   0.000690939   0.500000000   0.749497798
   0.500102108   0.000000000   0.249816675
   0.499541444   0.000000000   0.750310273
   0.499378427   0.500000000   0.249462549
   0.499498189   0.500000000   0.750503489
Mg28Ni4O32
   1.00000000
   8.497396896  -0.000000000   0.000113858
  -0.000000000   8.495748240   0.000000000
   0.000113858   0.000000000   8.495463811
  Ni  Mg  O
  4  28  32
Direct configuration=     10
   0.000418601   0.000000000   0.000654477
   0.000063592   0.000000000   0.499302506
   0.999425272   0.500000000   0.999378832
   0.250065285   0.000000000   0.250393590
   0.000143844   0.500000000   0.499749953
   0.499541990   0.000000000   0.000435872
   0.499709743   0.000000000   0.499730107
   0.499432005   0.500000000   0.999991409
   0.499399215   0.500000000   0.499846940
   0.000222007   0.248564415   0.249264258
   0.000243806   0.249480808   0.750505039
   0.000222007   0.751435585   0.249264258
   0.000243806   0.750519192   0.750505039
   0.499895098   0.250027186   0.250069927
   0.499834865   0.248935719   0.750093127
   0.499895098   0.749972814   0.250069927
   0.499834865   0.751064281   0.750093127
   0.247983592   0.000000000   0.750280979
   0.248362912   0.500000000   0.248878690
   0.249656561   0.500000000   0.750799701
   0.750979239   0.000000000   0.249652923
   0.752030460   0.000000000   0.750302712
   0.751360612   0.500000000   0.249607769
   0.750465092   0.500000000   0.750001499
   0.248735573   0.248997110   0.000521087
   0.249159395   0.248788298   0.499843095
   0.248735573   0.751002890   0.000521087
   0.249159395   0.751211702   0.499843095
   0.751066005   0.249582408   0.999950606
   0.751024914   0.249261514   0.500040504
   0.751066005   0.750417592   0.999950606
   0.751024914   0.750738486   0.500040504
   0.249257988   0.249377902   0.249885980
   0.249198779   0.249363804   0.750600755
   0.249257988   0.750622098   0.249885980
   0.249198779   0.750636196   0.750600755
   0.751489527   0.249126185   0.249687726
   0.751018448   0.249069172   0.750339756
   0.751489527   0.750873815   0.249687726
   0.751018448   0.750930828   0.750339756
   0.249700508   0.000000000   0.000574918
   0.248128779   0.000000000   0.500266072
   0.247805814   0.500000000   0.000368301
   0.248840300   0.500000000   0.499374089
   0.750324427   0.000000000   0.000563727
   0.751997054   0.000000000   0.499313394
   0.751191020   0.500000000   0.000491544
   0.750810157   0.500000000   0.499215069
   0.000156776   0.249291789   0.000379538
   0.000323524   0.249999190   0.499406984
   0.000156776   0.750708211   0.000379538
   0.000323524   0.750000810   0.499406984
   0.499477369   0.249085538   0.000516924
   0.499545506   0.248734422   0.499587992
   0.499477369   0.750914462   0.000516924
   0.499545506   0.751265578   0.499587992
   0.000984768   0.000000000   0.249147762
   0.000316535   0.000000000   0.750964096
   0.999999618   0.500000000   0.250062126
   0.000763634   0.500000000   0.749138020
   0.500444209   0.000000000   0.249796418
   0.499606004   0.000000000   0.750425060
   0.499400106   0.500000000   0.249292618
   0.499349890   0.500000000   0.750612231
Mg28Ni4O32
   1.00000000
   8.500372881  -0.000000000   0.000120304
  -0.000000000   8.498626539   0.000000000
   0.000120304   0.000000000   8.498322017
  Ni  Mg  O
  4  28  32
Direct configuration=     11
   0.000468881   0.000000000   0.000655900
   0.000169057   0.000000000   0.499316287
   0.999406017   0.500000000   0.999334019
   0.249847938   0.000000000   0.250381244