H107LiMg53
   1.00000000
   13.503017153  -0.000000054   0.000000000
  -0.000000054   13.503017153   0.000000000
   0.000000000   0.000000000   9.029981243
  Li  Mg  H
  1  53  107
Direct configuration=     1
   0.000000177   0.999999823   0.000000000
   0.999998962   0.000001038   0.332896382
   0.999998962   0.000001038   0.667103617
   0.000000067   0.333304020   0.000000000
   0.000001213   0.333323913   0.333325308
   0.000001213   0.333323913   0.666674693
   0.000000144   0.666696230   1.000000000
   0.000001031   0.666678715   0.333326393
   0.000001031   0.666678715   0.666673607
   0.333303769   0.999999855   1.000000000
   0.333321284   0.999998969   0.333326392
   0.333321284   0.999998968   0.666673608
   0.333324330   0.333333336   0.000000000
   0.333323106   0.333326375   0.333320634
   0.333323106   0.333326375   0.666679366
   0.333319811   0.666680189   0.000000000
   0.333171861   0.666828139   0.332910509
   0.333171861   0.666828139   0.667089490
   0.666695979   0.999999933   1.000000000
   0.666676087   0.999998787   0.333325308
   0.666676086   0.999998787   0.666674692
   0.666671816   0.333328184   0.000000000
   0.666666856   0.333333144   0.333345017
   0.666666856   0.333333144   0.666654983
   0.666666664   0.666675670   1.000000000
   0.666673625   0.666676894   0.333320634
   0.666673625   0.666676894   0.666679366
   0.166534070   0.166534865   0.166479448
   0.166655640   0.166655593   0.500000000
   0.166534071   0.166534865   0.833520552
   0.166667478   0.499995472   0.166656670
   0.166640799   0.499987478   0.500000000
   0.166667478   0.499995472   0.833343330
   0.166534722   0.833465278   0.166623761
   0.166629705   0.833370295   0.500000000
   0.166534722   0.833465278   0.833376239
   0.500000346   0.166660719   0.166662158
   0.499999017   0.166664427   0.500000000
   0.500000346   0.166660719   0.833337842
   0.500007592   0.499992407   0.166632045
   0.500182559   0.499817441   0.500000000
   0.500007592   0.499992407   0.833367954
   0.500004528   0.833332522   0.166656671
   0.500012522   0.833359201   0.500000000
   0.500004528   0.833332522   0.833343329
   0.833474232   0.166525767   0.166620938
   0.833344933   0.166655067   0.500000000
   0.833474232   0.166525767   0.833379062
   0.833339281   0.499999654   0.166662158
   0.833335572   0.500000983   0.500000000
   0.833339280   0.499999654   0.833337842
   0.833465135   0.833465930   0.166479448
   0.833344407   0.833344360   0.500000000
   0.833465135   0.833465930   0.833520552
   0.101608916   0.101608986   0.000000000
   0.101465724   0.101466084   0.333405824
   0.101465724   0.101466084   0.666594176
   0.101438320   0.434772738   0.000000000
   0.101443863   0.434776098   0.333338817
   0.101443863   0.434776098   0.666661182
   0.101450541   0.768075534   1.000000000
   0.101442093   0.768080791   0.333361952
   0.101442093   0.768080791   0.666638048
   0.434773253   0.101440630   1.000000000
   0.434771837   0.101438419   0.333331894
   0.434771837   0.101438418   0.666668106
   0.434773670   0.434770552   0.000000000
   0.434750049   0.434829294   0.333403988
   0.434750049   0.434829294   0.666596012
   0.434779647   0.768112730   0.000000000
   0.434759779   0.768041813   0.333410613
   0.434759779   0.768041813   0.666589387
   0.768073375   0.101456990   1.000000000
   0.768083330   0.101437460   0.333356166
   0.768083330   0.101437460   0.666643834
   0.768105979   0.434771658   1.000000000
   0.768108439   0.434772689   0.333330386
   0.768108439   0.434772689   0.666669614
   0.768039768   0.768039013   1.000000000
   0.768110017   0.768109347   0.333326364
   0.768110017   0.768109347   0.666673636
   0.231960987   0.231960232   0.000000000
   0.231890653   0.231889983   0.333326364
   0.231890653   0.231889983   0.666673636
   0.231887270   0.565220353   0.000000000
   0.231958187   0.565240221   0.333410613
   0.231958187   0.565240220   0.666589387
   0.231924466   0.898549460   0.000000000
   0.231919210   0.898557907   0.333361952
   0.231919210   0.898557907   0.666638048
   0.565228342   0.231894021   0.000000000
   0.565227311   0.231891561   0.333330386
   0.565227311   0.231891561   0.666669614
   0.565229447   0.565226330   0.000000000
   0.565170706   0.565249951   0.333403988
   0.565170706   0.565249951   0.666596012
   0.565227263   0.898561681   0.000000000
   0.565223902   0.898556137   0.333338817
   0.565223902   0.898556137   0.666661183
   0.898543011   0.231926625   0.000000000
   0.898562540   0.231916671   0.333356165
   0.898562540   0.231916671   0.666643835
   0.898559371   0.565226747   0.000000000
   0.898561582   0.565228164   0.333331893
   0.898561582   0.565228164   0.666668107
   0.898391014   0.898391084   1.000000000
   0.898533916   0.898534277   0.333405824
   0.898533916   0.898534277   0.666594176
   0.065216875   0.268136354   0.166691868
   0.065226021   0.268097959   0.500000000
   0.065216875   0.268136354   0.833308132
   0.065227043   0.601440779   0.166669182
   0.065231540   0.601442232   0.500000000
   0.065227043   0.601440779   0.833330818
   0.065359081   0.934640919   0.166965541
   0.065214564   0.934785436   0.500000000
   0.065359081   0.934640919   0.833034460
   0.398559985   0.268103136   0.166665827
   0.398560190   0.268107114   0.500000000
   0.398559985   0.268103136   0.833334173
   0.398564661   0.601435339   0.166677508
   0.398564661   0.601435339   0.833322493
   0.398559221   0.934772957   0.166669182
   0.398557767   0.934768460   0.500000000
   0.398559221   0.934772957   0.833330818
   0.731898488   0.268101512   0.166666395
   0.731895932   0.268104068   0.500000000
   0.731898488   0.268101512   0.833333605
   0.731896864   0.601440015   0.166665827
   0.731892886   0.601439810   0.500000000
   0.731896864   0.601440015   0.833334173
   0.731863646   0.934783125   0.166691868
   0.731902041   0.934773979   0.500000000
   0.731863646   0.934783125   0.833308132
   0.268136939   0.065217591   0.166692802
   0.268098676   0.065227844   0.500000000
   0.268136939   0.065217591   0.833307198
   0.268105749   0.398555852   0.166663649
   0.268119866   0.398587524   0.500000000
   0.268105749   0.398555852   0.833336351
   0.268092656   0.731907344   0.166672548
   0.268307047   0.731692953   0.500000000
   0.268092656   0.731907344   0.833327452
   0.601439904   0.065229170   0.166667978
   0.601439461   0.065229607   0.500000000
   0.601439904   0.065229170   0.833332022
   0.601439469   0.398560531   0.166666119
   0.601436109   0.398563891   0.500000000
   0.601439469   0.398560531   0.833333881
   0.601444148   0.731894251   0.166663649
   0.601412476   0.731880134   0.500000000
   0.601444148   0.731894251   0.833336351
   0.934641403   0.065358597   0.166966832
   0.934785490   0.065214510   0.500000000
   0.934641403   0.065358597   0.833033168
   0.934770830   0.398560096   0.166667978
   0.934770393   0.398560539   0.500000000
   0.934770830   0.398560096   0.833332022
   0.934782409   0.731863061   0.166692802
   0.934772156   0.731901323   0.500000000
   0.934782409   0.731863061   0.833307198
H107LiMg53
   1.00000000
   13.503226802  -0.000002515   0.000000000
  -0.000002515   13.503226809  -0.000000000
   0.000000000  -0.000000000   9.029759082
  Li  Mg  H
  1  53  107
Direct configuration=     2
   0.000002387   0.999997604   0.999999993
   0.999985220   0.000014775   0.328197410
   0.999985220   0.000014774   0.671802613
   0.000002980   0.332993549   0.999999978
   0.000013670   0.333226408   0.333257079
   0.000013669   0.333226405   0.666742922
   0.999993294   0.667007472   0.999999976
   0.000010967   0.666803613   0.333269242
   0.000010966   0.666803618   0.666730782
   0.332992522   0.000006703   0.999999975
   0.333196377   0.999989007   0.333269238
   0.333196373   0.999989008   0.666730785
   0.333238643   0.333346213   0.999999978
   0.333204965   0.333252749   0.333193465
   0.333204966   0.333252744   0.666806565
   0.333176763   0.666823231   0.999999990
   0.331311786   0.668688233   0.328155245
   0.331311807   0.668688240   0.671844757
   0.667006442   0.999997020   0.999999992
   0.666773573   0.999986323   0.333257084
   0.666773575   0.999986323   0.666742927
   0.666740303   0.333259697   0.999999981
   0.666679257   0.333320723   0.333453806
   0.666679255   0.333320722   0.666546196
   0.666653794   0.666761352   0.999999973
   0.666747228   0.666795035   0.333193461
   0.666747226   0.666795039   0.666806563
   0.165064869   0.165074728   0.164478366
   0.166549836   0.166551711   0.499999986
   0.165064871   0.165074728   0.835521665
   0.166679742   0.499949146   0.166569335
   0.166347528   0.499843512   0.499999984
   0.166679744   0.499949145   0.833430690
   0.165112832   0.834887148   0.166199418
   0.166252608   0.833747369   0.499999991
   0.165112836   0.834887152   0.833800569
   0.500004902   0.166588823   0.166606652
   0.499985300   0.166634262   0.499999988
   0.500004896   0.166588820   0.833393388
   0.500091914   0.499908071   0.166265193
   0.502275042   0.497724955   0.499999991
   0.500091916   0.499908069   0.833734817
   0.500050863   0.833320250   0.166569336
   0.500156491   0.833652454   0.499999986
   0.500050864   0.833320252   0.833430683
   0.834979021   0.165020995   0.166157749
   0.833496202   0.166503793   0.499999981
   0.834979020   0.165021002   0.833842253
   0.833411162   0.499995105   0.166606642
   0.833365746   0.500014693   0.499999987
   0.833411167   0.499995104   0.833393402
   0.834925266   0.834935130   0.164478384
   0.833448320   0.833450124   0.499999981
   0.834925267   0.834935130   0.835521655
   0.103509802   0.103511358   0.999999983
   0.101817985   0.101822082   0.334198874
   0.101817978   0.101822077   0.665801139
   0.101491040   0.434829254   0.999999990
   0.101569444   0.434881467   0.333402284
   0.101569442   0.434881465   0.666597714
   0.101654654   0.767807023   0.999999997
   0.101567884   0.767852049   0.333708400
   0.101567875   0.767852040   0.666291602
   0.434836797   0.101520145   0.999999986
   0.434824247   0.101496734   0.333320058
   0.434824243   0.101496731   0.666679948
   0.434845951   0.434805584   0.999999988
   0.434539122   0.435540637   0.334214932
   0.434539122   0.435540637   0.665785078
   0.434920055   0.768254706   0.999999985
   0.434697008   0.767379478   0.334283524
   0.434696997   0.767379466   0.665716486
   0.767780809   0.101728739   0.999999996
   0.767887920   0.101496560   0.333624369
   0.767887920   0.101496557   0.666375647
   0.768172543   0.434825947   0.999999981
   0.768201232   0.434837701   0.333303562
   0.768201228   0.434837697   0.666696432
   0.767361978   0.767352608   0.999999985
   0.768244687   0.768236920   0.333195679
   0.768244684   0.768236917   0.666804315
   0.232647391   0.232638014   0.999999989
   0.231763089   0.231755338   0.333195682
   0.231763091   0.231755338   0.666804321
   0.231745292   0.565079935   0.999999983
   0.232620509   0.565302980   0.334283523
   0.232620508   0.565302977   0.665716489
   0.232192989   0.898345354   0.999999997
   0.232147957   0.898432134   0.333708399
   0.232147959   0.898432133   0.666291613
   0.565174065   0.231827467   0.999999987
   0.565162312   0.231798782   0.333303560
   0.565162316   0.231798785   0.666696436
   0.565194431   0.565154058   0.999999989
   0.564459381   0.565460895   0.334214931
   0.564459380   0.565460894   0.665785071
   0.565170751   0.898508956   0.999999988
   0.565118552   0.898430581   0.333402285
   0.565118556   0.898430585   0.666597718
   0.898271263   0.232219177   0.999999992
   0.898503428   0.232112070   0.333624361
   0.898503431   0.232112069   0.666375663
   0.898479858   0.565163195   0.999999985
   0.898503289   0.565175773   0.333320062
   0.898503293   0.565175777   0.666679946
   0.896488651   0.896490212   0.999999987
   0.898177902   0.898182006   0.334198877
   0.898177908   0.898182011   0.665801140
   0.065040512   0.268539777   0.166969122
   0.065145259   0.268077836   0.499999998
   0.065040510   0.268539779   0.833030885
   0.065166718   0.601523696   0.166694364
   0.065211506   0.601549361   0.499999988
   0.065166713   0.601523701   0.833305661
   0.066704281   0.933295733   0.170305926
   0.064968770   0.935031233   0.499999993
   0.066704276   0.933295736   0.829694080
   0.398488338   0.268141630   0.166657331
   0.398486978   0.268189258   0.499999992
   0.398488339   0.268141630   0.833342676
   0.398538429   0.601461568   0.166750113
   0.398538427   0.601461568   0.833249889
   0.398476287   0.934833292   0.166694352
   0.398450634   0.934788505   0.499999989
   0.398476286   0.934833293   0.833305671
   0.731924733   0.268075264   0.166663277
   0.731844445   0.268155568   0.499999993
   0.731924729   0.268075264   0.833336739
   0.731858366   0.601511654   0.166657322
   0.731810747   0.601513019   0.499999986
   0.731858365   0.601511657   0.833342692
   0.731460228   0.934959486   0.166969123
   0.731922141   0.934854783   0.499999992
   0.731460226   0.934959487   0.833030874
   0.268546108   0.065049742   0.166981040
   0.268085747   0.065167120   0.499999989
   0.268546108   0.065049742   0.833018962
   0.268170121   0.398438204   0.166629211
   0.268349809   0.398826638   0.499999986
   0.268170125   0.398438202   0.833370805
   0.267926272   0.732073727   0.166628084
   0.270639364   0.729360640   0.499999991
   0.267926277   0.732073724   0.833371927
   0.601516046   0.065185875   0.166676601
   0.601511304   0.065188610   0.499999993
   0.601516046   0.065185877   0.833323414
   0.601506471   0.398493534   0.166661725
   0.601534768   0.398465227   0.499999991
   0.601506472   0.398493532   0.833338306
   0.601561805   0.731829863   0.166629213
   0.601173372   0.731650175   0.499999992
   0.601561809   0.731829860   0.833370799
   0.933304203   0.066695803   0.170319047
   0.935025702   0.064974302   0.499999992
   0.933304206   0.066695801   0.829680944
   0.934814119   0.398483963   0.166676596
   0.934811362   0.398488724   0.499999993
   0.934814120   0.398483960   0.833323423
   0.934950250   0.731453895   0.166981052
   0.934832867   0.731914258   0.499999990
   0.934950253   0.731453894   0.833018951
H107LiMg53
   1.00000000
   13.503249445  -0.000005169  -0.000000000
  -0.000005169   13.503249453  -0.000000000
  -0.000000000  -0.000000000   9.029744674
  Li  Mg  H
  1  53  107
Direct configuration=     3
   0.000002721   0.999997270   0.999999992
   0.999983075   0.000016919   0.328285772
   0.999983074   0.000016918   0.671714251
   0.000004924   0.333000609   0.999999977
   0.000012906   0.333228927   0.333272177
   0.000012904   0.333228924   0.666727826
   0.999985942   0.666998742   0.999999976
   0.000009944   0.666800098   0.333283578
   0.000009943   0.666800102   0.666716444
   0.333001255   0.000014055   0.999999976
   0.333199891   0.999990030   0.333283574
   0.333199887   0.999990032   0.666716447
   0.333248262   0.333355522   0.999999978
   0.333195101   0.333251866   0.333201182
   0.333195102   0.333251861   0.666798847
   0.333179254   0.666820740   0.999999991
   0.331235733   0.668764281   0.328062772
   0.331235751   0.668764288   0.671937227
   0.666999381   0.999995074   0.999999990
   0.666771056   0.999987084   0.333272182
   0.666771060   0.999987086   0.666727831
   0.666755875   0.333244126   0.999999980
   0.666694127   0.333305856   0.333430416
   0.666694126   0.333305856   0.666569587
   0.666644484   0.666751731   0.999999975
   0.666748112   0.666804896   0.333201179
   0.666748111   0.666804900   0.666798844
   0.165061566   0.165071860   0.164552036
   0.166567969   0.166572029   0.499999989
   0.165061567   0.165071860   0.835447992
   0.166686568   0.499952160   0.166593418
   0.166343272   0.499838319   0.499999987
   0.166686569   0.499952158   0.833406605
   0.165149106   0.834850875   0.166241551
   0.166271984   0.833727992   0.499999995
   0.165149108   0.834850879   0.833758437
   0.500005505   0.166585930   0.166604456
   0.499982434   0.166632160   0.499999992
   0.500005500   0.166585927   0.833395581
   0.500091957   0.499908027   0.166282073
   0.502347958   0.497652042   0.499999995
   0.500091959   0.499908026   0.833717935
   0.500047848   0.833313426   0.166593419
   0.500161684   0.833656711   0.499999991
   0.500047849   0.833313428   0.833406599
   0.834926272   0.165073743   0.166194116
   0.833515407   0.166484588   0.499999986
   0.834926270   0.165073749   0.833805885
   0.833414057   0.499994501   0.166604447
   0.833367849   0.500017562   0.499999990
   0.833414062   0.499994500   0.833395596
   0.834928135   0.834938431   0.164552054
   0.833427997   0.833431995   0.499999984
   0.834928135   0.834938431   0.835447981
   0.103482258   0.103484445   0.999999984
   0.101811124   0.101815012   0.334194084
   0.101811119   0.101815008   0.665805928
   0.101486235   0.434823811   0.999999989
   0.101574952   0.434886147   0.333402050
   0.101574951   0.434886146   0.666597948
   0.101664862   0.767806737   0.999999997
   0.101592095   0.767833145   0.333736139
   0.101592086   0.767833135   0.666263862
   0.434832398   0.101516393   0.999999986
   0.434823724   0.101495676   0.333320466
   0.434823720   0.101495674   0.666679540
   0.434845592   0.434802074   0.999999988
   0.434515218   0.435566783   0.334244871
   0.434515219   0.435566784   0.665755138
   0.434921331   0.768257046   0.999999985
   0.434712505   0.767356153   0.334301661
   0.434712497   0.767356144   0.665698349
   0.767780309   0.101736518   0.999999995
   0.767874797   0.101506281   0.333639348
   0.767874797   0.101506278   0.666360667
   0.768173286   0.434828545   0.999999981
   0.768201347   0.434840040   0.333304901
   0.768201344   0.434840036   0.666695091
   0.767348707   0.767338953   0.999999985
   0.768265232   0.768257814   0.333144984
   0.768265229   0.768257812   0.666855010
   0.232661046   0.232651285   0.999999989
   0.231742196   0.231734793   0.333144987
   0.231742197   0.231734793   0.666855016
   0.231742952   0.565078659   0.999999983
   0.232643836   0.565287486   0.334301659
   0.232643835   0.565287483   0.665698352
   0.232193272   0.898335143   0.999999996
   0.232166862   0.898407923   0.333736138
   0.232166865   0.898407922   0.666263872
   0.565171467   0.231826724   0.999999987
   0.565159971   0.231798663   0.333304900
   0.565159974   0.231798665   0.666695095
   0.565197941   0.565154417   0.999999989
   0.564433235   0.565484798   0.334244871
   0.564433234   0.565484798   0.665755131
   0.565176196   0.898513762   0.999999988
   0.565113870   0.898425071   0.333402051
   0.565113872   0.898425072   0.666597950
   0.898263483   0.232219678   0.999999991
   0.898493709   0.232125194   0.333639341
   0.898493712   0.232125193   0.666360680
   0.898483608   0.565167594   0.999999985
   0.898504347   0.565176296   0.333320468
   0.898504350   0.565176299   0.666679538
   0.896515565   0.896517755   0.999999988
   0.898184973   0.898188868   0.334194087
   0.898184978   0.898188872   0.665805929
   0.065041264   0.268543624   0.166973134
   0.065141670   0.268080276   0.499999996
   0.065041262   0.268543625   0.833026874
   0.065171611   0.601521231   0.166695615
   0.065207950   0.601554179   0.499999989
   0.065171607   0.601521235   0.833304410
   0.066666235   0.933333779   0.170381457
   0.064934372   0.935065630   0.499999992
   0.066666231   0.933333782   0.829618549
   0.398493807   0.268145612   0.166662104
   0.398488126   0.268192900   0.499999991
   0.398493808   0.268145613   0.833337903
   0.398535597   0.601464400   0.166710308
   0.398535595   0.601464401   0.833289694
   0.398478754   0.934828397   0.166695602
   0.398445820   0.934792057   0.499999990
   0.398478753   0.934828398   0.833304420
   0.731959252   0.268040745   0.166666394
   0.731839378   0.268160634   0.499999993
   0.731959249   0.268040745   0.833333622
   0.731854384   0.601506185   0.166662096
   0.731807104   0.601511871   0.499999988
   0.731854383   0.601506187   0.833337917
   0.731456379   0.934958735   0.166973136
   0.731919703   0.934858369   0.499999991
   0.731456377   0.934958737   0.833026862
   0.268549319   0.065050959   0.166985730
   0.268087380   0.065163653   0.499999991
   0.268549319   0.065050959   0.833014271
   0.268171446   0.398443009   0.166631931
   0.268360666   0.398838930   0.499999987
   0.268171450   0.398443007   0.833368086
   0.267838359   0.732161640   0.166496805
   0.270706833   0.729293172   0.499999993
   0.267838364   0.732161637   0.833503204
   0.601516023   0.065184839   0.166674839
   0.601511487   0.065185176   0.499999992
   0.601516024   0.065184841   0.833325176
   0.601503686   0.398496320   0.166666788
   0.601609235   0.398390760   0.499999992
   0.601503686   0.398496318   0.833333241
   0.601556999   0.731828539   0.166631933
   0.601161077   0.731639321   0.499999991
   0.601557002   0.731828537   0.833368079
   0.933345764   0.066654243   0.170392417
   0.935055861   0.064944143   0.499999992
   0.933345766   0.066654240   0.829607576
   0.934815154   0.398483987   0.166674835
   0.934814800   0.398488537   0.499999992
   0.934815156   0.398483984   0.833325184
   0.934949034   0.731450684   0.166985742
   0.934836336   0.731912623   0.499999992
   0.934949036   0.731450683   0.833014263
H107LiMg53
   1.00000000
   13.503712855  -0.000055559   0.000000000
  -0.000055559   13.503712851  -0.000000001
   0.000000000  -0.000000001   9.029435567
  Li  Mg  H
  1  53  107
Direct configuration=     4
   0.000009266   0.999990720   0.999999984
   0.999941503   0.000058482   0.329131069
   0.999941506   0.000058475   0.670868906
   0.000039969   0.333071678   0.999999956
   0.000003085   0.333263439   0.333524079
   0.000003072   0.333263448   0.666475921
   0.999858125   0.666900121   0.999999956
   0.999994260   0.666755147   0.333522537
   0.999994260   0.666755139   0.666477414
   0.333099915   0.000141923   0.999999973
   0.333244859   0.000005791   0.333522557
   0.333244847   0.000005786   0.666477417
   0.333411623   0.333528488   0.999999963
   0.332990948   0.333224080   0.333312051
   0.332990942   0.333224084   0.666687948
   0.333196506   0.666803507   0.999999958
   0.329524106   0.670475896   0.325544040
   0.329524108   0.670475903   0.674455957
   0.666928367   0.999960064   0.999999966
   0.666736530   0.999996919   0.333524069
   0.666736533   0.999996929   0.666475935
   0.667056774   0.332943223   0.999999963
   0.666986563   0.333013414   0.333009576
   0.666986560   0.333013426   0.666990389
   0.666471526   0.666588389   0.999999978
   0.666775952   0.667009077   0.333312054
   0.666775945   0.667009075   0.666687937
   0.164745896   0.164767017   0.165488812
   0.166876199   0.166920500   0.500000026
   0.164745892   0.164767015   0.834511215
   0.166815620   0.499998559   0.167006920
   0.166217028   0.499719222   0.500000028
   0.166815620   0.499998567   0.832993096
   0.165501511   0.834498470   0.166922932
   0.166567020   0.833432947   0.500000030
   0.165501514   0.834498468   0.833077068
   0.500014936   0.166520724   0.166556805
   0.499927999   0.166588076   0.500000043
   0.500014933   0.166520721   0.833443199
   0.500102022   0.499897990   0.166533023
   0.504052715   0.495947302   0.500000079
   0.500102027   0.499897993   0.833466965
   0.500001442   0.833184353   0.167006910
   0.500280786   0.833782996   0.500000040
   0.500001445   0.833184355   0.832993099
   0.834274326   0.165725676   0.166773943
   0.833889154   0.166110811   0.500000035
   0.834274311   0.165725666   0.833226084
   0.833479273   0.499985058   0.166556855
   0.833411959   0.500072015   0.500000033
   0.833479271   0.499985057   0.833443135
   0.835233006   0.835254090   0.165488802
   0.833079481   0.833123823   0.500000031
   0.835233002   0.835254090   0.834511203
   0.103311827   0.103325706   0.999999978
   0.101748239   0.101748868   0.334272553
   0.101748245   0.101748880   0.665727446
   0.101414562   0.434741331   0.999999982
   0.101694291   0.434986295   0.333413095
   0.101694291   0.434986296   0.666586880
   0.101871085   0.767759987   0.999999979
   0.102066744   0.767435314   0.334318440
   0.102066737   0.767435307   0.665681551
   0.434766606   0.101464175   0.999999979
   0.434823296   0.101485809   0.333326602
   0.434823319   0.101485822   0.666673378
   0.434859409   0.434749252   0.999999987
   0.434037557   0.436165621   0.334932725
   0.434037565   0.436165627   0.665067250
   0.434968842   0.768325732   0.999999982
   0.434983654   0.766810939   0.334764929
   0.434983656   0.766810941   0.665235067
   0.767725294   0.101924242   0.999999969
   0.767599675   0.101697179   0.333968776
   0.767599674   0.101697176   0.666031223
   0.768196400   0.434880369   0.999999988
   0.768219758   0.434893103   0.333318311
   0.768219756   0.434893101   0.666681702
   0.767015679   0.766996617   0.999999979
   0.768651516   0.768650274   0.332203044
   0.768651513   0.768650273   0.667796925
   0.233003338   0.232984279   0.999999983
   0.231349707   0.231348470   0.332203045
   0.231349706   0.231348466   0.667796924
   0.231674283   0.565031170   0.999999972
   0.233189056   0.565016338   0.334764932
   0.233189050   0.565016334   0.665235074
   0.232239982   0.898128884   0.999999981
   0.232564679   0.897933260   0.334318440
   0.232564680   0.897933259   0.665681559
   0.565119630   0.231803603   0.999999981
   0.565106919   0.231780269   0.333318308
   0.565106906   0.231780257   0.666681705
   0.565250740   0.565140578   0.999999987
   0.563834368   0.565962422   0.334932722
   0.563834364   0.565962410   0.665067241
   0.565258660   0.898585422   0.999999981
   0.565013713   0.898305724   0.333413098
   0.565013705   0.898305706   0.666586869
   0.898075744   0.232274664   0.999999979
   0.898302826   0.232400346   0.333968768
   0.898302831   0.232400351   0.666031197
   0.898535824   0.565233401   0.999999990
   0.898514152   0.565176667   0.333326609
   0.898514150   0.565176666   0.666673363
   0.896674325   0.896688189   0.999999987
   0.898251126   0.898251767   0.334272567
   0.898251126   0.898251767   0.665727442
   0.065024705   0.268680957   0.167098022
   0.065068271   0.268119025   0.500000016
   0.065024704   0.268680955   0.832902007
   0.065252610   0.601490384   0.166729030
   0.065145230   0.601653201   0.500000024
   0.065252614   0.601490386   0.833271000
   0.066249944   0.933750070   0.172331610
   0.064302581   0.935697427   0.500000011
   0.066249940   0.933750069   0.827668400
   0.398584909   0.268229300   0.166755379
   0.398491504   0.268272699   0.500000016
   0.398584903   0.268229304   0.833244642
   0.398446933   0.601553052   0.165998057
   0.398446926   0.601553058   0.834001961
   0.398509619   0.934747397   0.166729005
   0.398346807   0.934854762   0.500000018
   0.398509617   0.934747398   0.833271017
   0.732569377   0.267430626   0.166719981
   0.731764548   0.268235475   0.500000011
   0.732569371   0.267430625   0.833280050
   0.731770703   0.601415098   0.166755380
   0.731727281   0.601508504   0.500000017
   0.731770704   0.601415098   0.833244648
   0.731319016   0.934975316   0.167098022
   0.731881008   0.934931711   0.499999999
   0.731319015   0.934975319   0.832901997
   0.268676229   0.065043258   0.167125390
   0.268110176   0.065096359   0.500000022
   0.268676228   0.065043254   0.832874611
   0.268209129   0.398513419   0.166680185
   0.268594728   0.399097302   0.500000020
   0.268209131   0.398513415   0.833319821
   0.266235513   0.733764488   0.164054921
   0.272301735   0.727698276   0.500000014
   0.266235517   0.733764487   0.835945099
   0.601527562   0.065158997   0.166647510
   0.601519610   0.065116355   0.500000015
   0.601527558   0.065159005   0.833352507
   0.601477166   0.398522836   0.166760495
   0.602987222   0.397012784   0.500000017
   0.601477172   0.398522829   0.833239521
   0.601486571   0.731790893   0.166680177
   0.600902709   0.731405264   0.500000011
   0.601486573   0.731790891   0.833319824
   0.933815855   0.066184151   0.172300522
   0.935624461   0.064375536   0.500000012
   0.933815848   0.066184155   0.827699489
   0.934840972   0.398472471   0.166647500
   0.934883632   0.398480395   0.500000008
   0.934840980   0.398472461   0.833352518
   0.934956714   0.731323794   0.167125397
   0.934903643   0.731889815   0.500000023
   0.934956714   0.731323799   0.832874665
H107LiMg53
   1.00000000
   13.503762865  -0.000061308   0.000000000
  -0.000061308   13.503762862  -0.000000001
   0.000000000  -0.000000001   9.029404262
  Li  Mg  H
  1  53  107
Direct configuration=     5
   0.000009780   0.999990207   0.999999983
   0.999938669   0.000061315   0.329199180
   0.999938672   0.000061308   0.670800799
   0.000041249   0.333069480   0.999999962
   0.000004487   0.333270818   0.333528336
   0.000004474   0.333270828   0.666471665
   0.999857792   0.666903530   0.999999960
   0.999994748   0.666750481   0.333525152
   0.999994748   0.666750473   0.666474804
   0.333096507   0.000142253   0.999999977
   0.333249524   0.000005299   0.333525171
   0.333249513   0.000005295   0.666474806
   0.333424549   0.333540854   0.999999969
   0.332972198   0.333223340   0.333310332
   0.332972193   0.333223343   0.666689667
   0.333192373   0.666807638   0.999999964
   0.329390675   0.670609323   0.325324048
   0.329390675   0.670609328   0.674675947
   0.666930560   0.999958779   0.999999969
   0.666729154   0.999995516   0.333528330
   0.666729156   0.999995526   0.666471677
   0.667083160   0.332916839   0.999999967
   0.667028345   0.332971634   0.332967065
   0.667028343   0.332971646   0.667032903
   0.666459156   0.666575462   0.999999983
   0.666776690   0.667027824   0.333310335
   0.666776683   0.667027822   0.666689656
   0.164711539   0.164734828   0.165475717
   0.166892122   0.166939211   0.500000025