Mg28Ni4O32
   1.00000000
   8.440356578   0.000004531  -0.000004531
   0.000004531   8.440345968   0.000002830
  -0.000004531   0.000002830   8.440345968
  Ni  Mg  O
  4  28  32
Direct configuration=     1
   0.000009180   0.000070887   0.000101569
   0.000009180   0.249898431   0.249929113
   0.249853894   0.999961975   0.250038025
   0.250093696   0.750020222   0.499979778
   0.000195401   0.999963932   0.499854201
   0.999999122   0.499933099   0.000052629
   0.000052524   0.500012249   0.499963689
   0.499962011   0.999985771   0.000015279
   0.499816674   0.999904326   0.499976009
   0.500021444   0.500027157   0.999970195
   0.499932799   0.500085495   0.500017106
   0.999999122   0.249947371   0.750066901
   0.000195401   0.750145799   0.250036068
   0.000052524   0.750036311   0.749987751
   0.499962011   0.249984721   0.250014229
   0.500021444   0.250029805   0.749972843
   0.499816674   0.750023991   0.250095674
   0.499932799   0.749982894   0.749914505
   0.249951340   0.999901653   0.749973067
   0.249951340   0.500026933   0.250098347
   0.250022281   0.500124429   0.749875571
   0.750173106   0.000076842   0.249923158
   0.750051741   0.999992940   0.750099935
   0.750051741   0.499900065   0.250007060
   0.749981306   0.499997694   0.750002306
   0.249839208   0.249838779   0.000161221
   0.249917754   0.249949992   0.499824061
   0.249917754   0.750175939   0.000050008
   0.750159670   0.249959028   0.000040972
   0.750043953   0.250042731   0.499976760
   0.750043953   0.750023240   0.999957269
   0.750011976   0.749991663   0.500008337
   0.250041356   0.250004424   0.249996001
   0.249914605   0.249917451   0.749953294
   0.249925141   0.749960144   0.249807955
   0.249989480   0.750059635   0.750197307
   0.749879912   0.249876469   0.249960028
   0.750081500   0.249956540   0.750008953
   0.750040090   0.750086588   0.250063656
   0.750017037   0.750038777   0.749947498
   0.250041356   0.000003999   0.999995576
   0.249925141   0.000192045   0.500039856
   0.249914605   0.500046706   0.000082549
   0.249989480   0.499802693   0.499940365
   0.749879912   0.000039972   0.000123531
   0.750040090   0.999936344   0.499913412
   0.750081500   0.499991047   0.000043460
   0.750017037   0.500052502   0.499961223
   0.000067048   0.250030354   0.999969646
   0.000099841   0.249903578   0.500131055
   0.000099841   0.749868945   0.000096422
   0.999778309   0.750098307   0.499901693
   0.499997377   0.249905028   0.000094972
   0.499946242   0.249961410   0.499912313
   0.499946242   0.750087687   0.000038590
   0.500171558   0.750073479   0.499926521
   0.000013467   0.999975348   0.250024652
   0.000055901   0.000091637   0.749882653
   0.000055901   0.500117347   0.249908363
   0.000035344   0.499929562   0.750070438
   0.500087955   0.000025998   0.249974002
   0.499927924   0.000008866   0.750060577
   0.499927924   0.499939423   0.249991134
   0.499967861   0.500001330   0.749998670
Mg28Ni4O32
   1.00000000
   8.442507684   0.000032196  -0.000032196
   0.000032196   8.442433647   0.000020040
  -0.000032196   0.000020040   8.442433647
  Ni  Mg  O
  4  28  32
Direct configuration=     2
   0.000062315   0.000405439   0.000601150
   0.000062315   0.249398850   0.249594561
   0.249140376   0.999777360   0.250222640
   0.250553244   0.750136887   0.499863113
   0.001176770   0.999786900   0.499119926
   0.000073409   0.499626911   0.000342415
   0.000318559   0.500069511   0.499766520
   0.499759670   0.999926578   0.000136760
   0.498909677   0.999456866   0.499812459
   0.500056519   0.500159587   0.999867848
   0.499589277   0.500483214   0.500050139
   0.000073409   0.249657585   0.750373089
   0.001176770   0.750880074   0.250213100
   0.000318559   0.750233480   0.749930489
   0.499759670   0.249863240   0.250073422
   0.500056519   0.250132152   0.749840413
   0.498909677   0.750187541   0.250543134
   0.499589277   0.749949861   0.749516786
   0.249682873   0.999461414   0.749845503
   0.249682873   0.500154497   0.250538586
   0.250086646   0.500704280   0.749295720
   0.751022193   0.000424367   0.249575633
   0.750331240   0.999959889   0.750562645
   0.750331240   0.499437355   0.250040111
   0.749939389   0.499983956   0.750016044
   0.249033693   0.249016788   0.000983212
   0.249473749   0.249671729   0.498924690
   0.249473749   0.751075310   0.000328271
   0.750956796   0.249729477   0.000270523
   0.750282511   0.250178465   0.499849955
   0.750282511   0.750150045   0.999821535
   0.750119443   0.750028310   0.499971690
   0.250173971   0.249973917   0.249959875
   0.249491522   0.249496616   0.749736768
   0.249539093   0.749803356   0.248892476
   0.249932681   0.750373449   0.751144164
   0.749343027   0.249255446   0.249749428
   0.750494731   0.249742119   0.750078677
   0.750255258   0.750518467   0.250346602
   0.750106507   0.750234466   0.749724300
   0.250173971   0.000040125   0.000026083
   0.249539093   0.001107524   0.500196644
   0.249491522   0.500263232   0.000503384
   0.249932681   0.498855836   0.499626551
   0.749343027   0.000250572   0.000744554
   0.750255258   0.999653398   0.499481533
   0.750494731   0.499921323   0.000257881
   0.750106507   0.500275700   0.499765534
   0.000399899   0.250123999   0.999876001
   0.000592109   0.249422865   0.500723986
   0.000592109   0.749276014   0.000577135
   0.998741632   0.750598026   0.499401974
   0.499989123   0.249436619   0.000563381
   0.499679899   0.249777482   0.499472837
   0.499679899   0.750527163   0.000222518
   0.500961305   0.750439319   0.499560681
   0.000161119   0.999895864   0.250104136
   0.000342426   0.000516226   0.749339138
   0.000342426   0.500660862   0.249483774
   0.000215847   0.499602777   0.750397223
   0.500442535   0.000126878   0.249873122
   0.499547025   0.000026901   0.750344826
   0.499547025   0.499655174   0.249973099
   0.499807115   0.500040366   0.749959634
Mg28Ni4O32
   1.00000000
   8.443159532   0.000040773  -0.000040773
   0.000040773   8.443066518   0.000025411
  -0.000040773   0.000025411   8.443066518
  Ni  Mg  O
  4  28  32
Direct configuration=     3
   0.000074733   0.000430360   0.000656763
   0.000074733   0.249343237   0.249569640
   0.249066300   0.999759679   0.250240321
   0.250606342   0.750165154   0.499834846
   0.001301621   0.999768756   0.499026548
   0.000151237   0.499614238   0.000401082
   0.000353147   0.500073299   0.499727656
   0.499724317   0.999930041   0.000191251
   0.498803398   0.999431632   0.499754621
   0.499997948   0.500173543   0.999895414
   0.499542100   0.500505449   0.500008061
   0.000151237   0.249598918   0.750385762
   0.001301621   0.750973452   0.250231244
   0.000353147   0.750272344   0.749926701
   0.499724317   0.249808749   0.250069959
   0.499997948   0.250104586   0.749826457
   0.498803398   0.750245379   0.250568368
   0.499542100   0.749991939   0.749494551
   0.249627511   0.999452759   0.749837127
   0.249627511   0.500162873   0.250547241
   0.250054353   0.500740006   0.749259994
   0.751112447   0.000434375   0.249565625
   0.750383933   0.999958121   0.750589786
   0.750383933   0.499410214   0.250041879
   0.749978439   0.499979830   0.750020170
   0.248934270   0.248898646   0.001101354
   0.249391296   0.249615354   0.498793537
   0.249391296   0.751206463   0.000384646
   0.751055037   0.249681081   0.000318919
   0.750329201   0.250127037   0.499826345
   0.750329201   0.750173655   0.999872963
   0.750173193   0.750100734   0.499899266
   0.250123640   0.249923085   0.249940392
   0.249442744   0.249436254   0.749726226
   0.249483690   0.749822394   0.248822342
   0.249918560   0.750426385   0.751225700
   0.749333732   0.249175931   0.249716663
   0.750551906   0.249714403   0.750108553
   0.750297360   0.750573644   0.250348894
   0.750124910   0.750263546   0.749731513
   0.250123640   0.000059608   0.000076915
   0.249483690   0.001177658   0.500177606
   0.249442744   0.500273774   0.000563746
   0.249918560   0.498774300   0.499573615
   0.749333732   0.000283337   0.000824069
   0.750297360   0.999651106   0.499426356
   0.750551906   0.499891447   0.000285597
   0.750124910   0.500268487   0.499736454
   0.000439620   0.250083769   0.999916231
   0.000644915   0.249363538   0.500741112
   0.000644915   0.749258888   0.000636462
   0.998679909   0.750667998   0.499332002
   0.499987319   0.249383358   0.000616642
   0.499646894   0.249757804   0.499416449
   0.499646894   0.750583551   0.000242196
   0.500996642   0.750485222   0.499514778
   0.000250648   0.999925027   0.250074973
   0.000383889   0.000535937   0.749308145
   0.000383889   0.500691855   0.249464063
   0.000245699   0.499585339   0.750414661
   0.500410502   0.000112391   0.249887609
   0.499480227   0.000007956   0.750362414
   0.499480227   0.499637586   0.249992044
   0.499783465   0.500072523   0.749927477
Mg28Ni4O32
   1.00000000
   8.449949659   0.000130496  -0.000130496
   0.000130496   8.449659280   0.000081971
  -0.000130496   0.000081971   8.449659280
  Ni  Mg  O
  4  28  32
Direct configuration=     4
   0.000180174   0.000525362   0.001009754
   0.000180174   0.248990246   0.249474638
   0.248617894   0.999664876   0.250335124
   0.250962013   0.750421267   0.499578733
   0.002186455   0.999664655   0.498373407
   0.001006892   0.499642032   0.000912575
   0.000592405   0.500084786   0.499389093
   0.499435254   0.000005943   0.000749707
   0.498090914   0.999410052   0.499187301
   0.499298971   0.500258676   0.000265161
   0.499206636   0.500524686   0.499502421
   0.001006892   0.249087425   0.750357968
   0.002186455   0.751626593   0.250335345
   0.000592405   0.750610907   0.749915214
   0.499435254   0.249250293   0.249994057
   0.499298971   0.249734839   0.749741324
   0.498090914   0.750812699   0.250589948
   0.499206636   0.750497579   0.749475314
   0.249141505   0.999606535   0.749820585
   0.249141505   0.500179415   0.250393465
   0.249655158   0.500818100   0.749181900
   0.751670353   0.000353192   0.249646808
   0.750829136   0.999958789   0.750643292
   0.750829136   0.499356708   0.250041211
   0.750448035   0.499936666   0.750063334
   0.248249556   0.247995721   0.002004279
   0.248695331   0.249134893   0.497778429
   0.248695331   0.752221571   0.000865107
   0.751733544   0.249262961   0.000737039
   0.750733569   0.249452331   0.499636856
   0.750733569   0.750363144   0.000547669
   0.750728250   0.750912362   0.499087638
   0.249456803   0.249347097   0.249732973
   0.249118172   0.248976353   0.749737307
   0.249067225   0.750136991   0.248555905
   0.249766355   0.750866063   0.751612693
   0.749543785   0.248602614   0.249474699
   0.750983813   0.249493066   0.750409348
   0.750673487   0.750978443   0.250207615
   0.750307634   0.750508805   0.749942913
   0.249456803   0.000267027   0.000652903
   0.249067225   0.001444095   0.499863009
   0.249118172   0.500262693   0.001023647
   0.249766355   0.498387307   0.499133937
   0.749543785   0.000525301   0.001397386
   0.750673487   0.999792385   0.499021557
   0.750983813   0.499590652   0.000506934
   0.750307634   0.500057087   0.499491195
   0.000720442   0.249561678   0.000438322
   0.000970775   0.248944400   0.500584100
   0.000970775   0.749415900   0.001055600
   0.998595104   0.751200369   0.498799631
   0.499940737   0.249027709   0.000972291
   0.499404358   0.249606952   0.499004859
   0.499404358   0.750995141   0.000393048
   0.500937370   0.750825422   0.499174578
   0.001204964   0.000305266   0.249694734
   0.000701493   0.000507269   0.749258895
   0.000701493   0.500741105   0.249492731
   0.000513944   0.499576192   0.750423808
   0.499824505   0.999881732   0.250118268
   0.498918068   0.999791509   0.750396785
   0.498918068   0.499603215   0.250208491
   0.499579709   0.500414858   0.749585142
Mg28Ni4O32
   1.00000000
   8.454166060   0.000186430  -0.000186430
   0.000186430   8.453752583   0.000117815
  -0.000186430   0.000117815   8.453752583
  Ni  Mg  O
  4  28  32
Direct configuration=     5
   0.000210784   0.000482973   0.001066745
   0.000210784   0.248933255   0.249517027
   0.248560471   0.999667473   0.250332527
   0.251044702   0.750530181   0.499469819
   0.002427376   0.999660541   0.498209960
   0.001475014   0.499741736   0.001125714
   0.000643651   0.500076794   0.499245197
   0.499331325   0.000069581   0.001034692
   0.497926856   0.999544131   0.498919558
   0.498879997   0.500269746   0.000495976
   0.499129142   0.500408339   0.499200736
   0.001475014   0.248874286   0.750258264
   0.002427376   0.751790040   0.250339459
   0.000643651   0.750754803   0.749923206
   0.499331325   0.248965308   0.249930419
   0.498879997   0.249504024   0.749730254
   0.497926856   0.751080442   0.250455869
   0.499129142   0.750799264   0.749591661
   0.248937777   0.999818776   0.749857406
   0.248937777   0.500142594   0.250181224
   0.249425716   0.500697197   0.749302803
   0.751759268   0.000214506   0.249785494
   0.751003271   0.999971763   0.750552638
   0.751003271   0.499447362   0.250028237
   0.750723047   0.499909832   0.750090168
   0.248084400   0.247692801   0.002307199
   0.248423103   0.248955896   0.497420421
   0.248423103   0.752579579   0.001044104
   0.751901787   0.249101767   0.000898233
   0.750903496   0.249021384   0.499579808
   0.750903496   0.750420192   0.000978616
   0.751011445   0.751364080   0.498635920
   0.249023696   0.249016269   0.249621432
   0.249045756   0.248824411   0.749817899
   0.248941631   0.750367730   0.248689790
   0.249661032   0.751044456   0.751551044
   0.749829583   0.248428771   0.249421301
   0.751130964   0.249387583   0.750555806
   0.750851774   0.751113737   0.250040480
   0.750421753   0.750628702   0.750127334
   0.249023696   0.000378568   0.000983731
   0.248941631   0.001310210   0.499632270
   0.249045756   0.500182101   0.001175589
   0.249661032   0.498448956   0.498955544
   0.749829583   0.000578699   0.001571229
   0.750851774   0.999959520   0.498886263
   0.751130964   0.499444194   0.000612417
   0.750421753   0.499872666   0.499371298
   0.000807420   0.249231750   0.000768250
   0.001016665   0.248822422   0.500304052
   0.001016665   0.749695948   0.001177578
   0.998893461   0.751383766   0.498616234
   0.499866651   0.248939442   0.001060558
   0.499315905   0.249525483   0.498871124
   0.499315905   0.751128876   0.000474517
   0.500659913   0.750949842   0.499050158
   0.001715250   0.000540216   0.249459784
   0.000807132   0.000352611   0.749378999
   0.000807132   0.500621001   0.249647389
   0.000659367   0.499670276   0.750329724
   0.499366052   0.999714990   0.250285010
   0.498686957   0.999684982   0.750328890
   0.498686957   0.499671110   0.250315018
   0.499471774   0.500590066   0.749409934
Mg28Ni4O32
   1.00000000
   8.459269710   0.000254295  -0.000254295
   0.000254294   8.458705665   0.000162282
  -0.000254294   0.000162282   8.458705665
  Ni  Mg  O
  4  28  32
Direct configuration=     6
   0.000194790   0.000373429   0.001003902
   0.000194790   0.248996098   0.249626571
   0.248654809   0.999715287   0.250284713
   0.251032019   0.750587973   0.499412027
   0.002450239   0.999702643   0.498228809
   0.001852574   0.499884641   0.001249867
   0.000614119   0.500062994   0.499154327
   0.499294101   0.000142780   0.001249459
   0.497954238   0.999785551   0.498749883
   0.498499489   0.500249886   0.000695816
   0.499166272   0.500200055   0.498932103
   0.001852574   0.248750133   0.750115359
   0.002450239   0.751771191   0.250297357
   0.000614119   0.750845673   0.749937006
   0.499294101   0.248750541   0.249857220
   0.498499489   0.249304184   0.749750114
   0.497954238   0.751250117   0.250214449
   0.499166272   0.751067897   0.749799945
   0.248819516   0.000086315   0.749932793
   0.248819516   0.500067207   0.249913685
   0.249250881   0.500471544   0.749528456
   0.751676776   0.000038464   0.249961536
   0.751089357   0.999995217   0.750397542
   0.751089357   0.499602458   0.250004783
   0.750956275   0.499878508   0.750121492
   0.248109222   0.247575657   0.002424343
   0.248286023   0.248894566   0.497247275
   0.248286023   0.752752725   0.001105434
   0.751886954   0.249036894   0.000963106
   0.751009335   0.248618114   0.499586348
   0.751009335   0.750413652   0.001381886
   0.751223499   0.751735072   0.498264928
   0.248608620   0.248729472   0.249532742
   0.249060836   0.248771400   0.749952926
   0.248922598   0.750603888   0.249041583
   0.249524173   0.751158742   0.751273949
   0.750204402   0.248371810   0.249467469
   0.751198661   0.249272929   0.750653747
   0.751001069   0.751183290   0.249834637
   0.750560723   0.750750000   0.750329105
   0.248608620   0.000467258   0.001270528
   0.248922598   0.000958417   0.499396112
   0.249060836   0.500047074   0.001228600
   0.249524173   0.498726051   0.498841258
   0.750204402   0.000532531   0.001628190
   0.751001069   0.000165363   0.498816710
   0.751198661   0.499346253   0.000727071
   0.750560723   0.499670895   0.499250000
   0.000846294   0.248929065   0.001070935
   0.000952078   0.248786075   0.499905421
   0.000952078   0.750094579   0.001213925
   0.999461283   0.751470913   0.498529087
   0.499715027   0.248930499   0.001069501
   0.499249795   0.249410916   0.498808191
   0.499249795   0.751191809   0.000589084
   0.500228660   0.751037413   0.498962587
   0.002122677   0.000743083   0.249256917
   0.000844292   0.000104546   0.749584014
   0.000844292   0.500415986   0.249895454
   0.000819915   0.499829620   0.750170380
   0.498865040   0.999547091   0.250452909
   0.498542728   0.999635886   0.750201868
   0.498542728   0.499798132   0.250364114
   0.499350620   0.500711547   0.749288453
Mg28Ni4O32
   1.00000000
   8.464851944   0.000328689  -0.000328689
   0.000328689   8.464120916   0.000212189
  -0.000328689   0.000212189   8.464120916
  Ni  Mg  O
  4  28  32
Direct configuration=     7
   0.000122855   0.000259957   0.000875377
   0.000122855   0.249124623   0.249740043
   0.248811415   0.999778813   0.250221187
   0.250961132   0.750572439   0.499427561
   0.002322265   0.999765366   0.498378971
   0.001994279   0.499992760   0.001255579
   0.000526701   0.500058389   0.499135428
   0.499330815   0.000197945   0.001316540
   0.498095999   0.000025922   0.498748790
   0.498297555   0.500212391   0.000772644
   0.499296895   0.499994654   0.498797887
   0.001994279   0.248744421   0.750007240
   0.002322265   0.751621029   0.250234634
   0.000526701   0.750864572   0.749941611
   0.499330815   0.248683460   0.249802055
   0.498297555   0.249227356   0.749787609
   0.498095999   0.751251210   0.249974078
   0.499296895   0.751202113   0.750005346
   0.248815586   0.000271796   0.750016108
   0.248815586   0.499983892   0.249728204
   0.249219498   0.500265820   0.749734180
   0.751517492   0.999924133   0.250075867
   0.751068384   0.000019938   0.750277627
   0.751068384   0.499722373   0.249980062
   0.751052254   0.499848103   0.750151897
   0.248260568   0.247625329   0.002374671
   0.248309524   0.248973965   0.497243669
   0.248309524   0.752756331   0.001026035
   0.751746620   0.249089840   0.000910160
   0.751031103   0.248404555   0.499660165
   0.751031103   0.750339835   0.001595445
   0.751287697   0.751880994   0.498119006
   0.248377012   0.248597408   0.249502876
   0.249123437   0.248808444   0.750082177
   0.248996825   0.750742879   0.249434930
   0.249383076   0.751197328   0.750937637
   0.750490956   0.248398042   0.249604615
   0.751195635   0.249151385   0.750663128
   0.751095799   0.751204907   0.249693823
   0.750699735   0.750860331   0.750451357
   0.248377012   0.000497124   0.001402592
   0.248996825   0.000565070   0.499257121
   0.249123437   0.499917823   0.001191556
   0.249383076   0.499062363   0.498802672
   0.750490956   0.000395385   0.001601958
   0.751095799   0.000306177   0.498795093
   0.751195635   0.499336872   0.000848615
   0.750699735   0.499548643   0.499139669
   0.000854068   0.248782390   0.001217610
   0.000835427   0.248803922   0.499567969
   0.000835427   0.750432031   0.001196078
   0.000059465   0.751474306   0.498525694
   0.499503029   0.248960075   0.001039925
   0.499191756   0.249261493   0.498794035
   0.499191756   0.751205965   0.000738507
   0.499856131   0.751099554   0.498900446
   0.002276691   0.000821370   0.249178630
   0.000817769   0.999879299   0.749754686
   0.000817769   0.500245314   0.250120701
   0.000974016   0.499974990   0.750025010
   0.498526540   0.999454781   0.250545219
   0.498511561   0.999690182   0.750083186
   0.498511561   0.499916814   0.250309818
   0.499231478   0.500723007   0.749276993
Mg28Ni4O32
   1.00000000
   8.474784718   0.000461518  -0.000461518
   0.000461517   8.473753050   0.000302585
  -0.000461517   0.000302585   8.473753050
  Ni  Mg  O
  4  28  32
Direct configuration=     8
   0.999948316   0.000129846   0.000664960
   0.999948316   0.249335040   0.249870154
   0.249031183   0.999864745   0.250135255
   0.250832613   0.750467860   0.499532140
   0.002056051   0.999858408   0.498684606
   0.001906686   0.500070416   0.001141502
   0.000362730   0.500076376   0.499178831
   0.499457634   0.000250513   0.001238403
   0.498350094   0.000316578   0.498946482
   0.498233101   0.500146894   0.000716954
   0.499566229   0.499749586   0.498773293
   0.001906686   0.248858498   0.749929584
   0.002056051   0.751315394   0.250141592
   0.000362730   0.750821169   0.749923624
   0.499457634   0.248761597   0.249749487
   0.498233101   0.249283046   0.749853106
   0.498350094   0.751053518   0.249683422
   0.499566229   0.751226707   0.750250414
   0.248926498   0.000383562   0.750128151
   0.248926498   0.499871849   0.249616438
   0.249362759   0.500061276   0.749938724
   0.751281457   0.999875357   0.250124643
   0.750930517   0.000051967   0.750201828
   0.750930517   0.499798172   0.249948033
   0.751015874   0.499803675   0.750196325
   0.248549503   0.247824171   0.002175829
   0.248498518   0.249240003   0.497361231
   0.248498518   0.752638769   0.000759997
   0.751465694   0.249288907   0.000711093
   0.750982992   0.248350851   0.499838505
   0.750982992   0.750161495   0.001649149
   0.751204535   0.751809291   0.498190709
   0.248297811   0.248612304   0.249538140
   0.249225578   0.248934830   0.750227757
   0.249183936   0.750794949   0.249947711
   0.249182812   0.751188005   0.750486277
   0.750719470   0.248480965   0.249892554
   0.751135473   0.248956451   0.750571655
   0.751182673   0.751213161   0.249616841
   0.750897375   0.751011486   0.750494383
   0.248297811   0.000461860   0.001387696
   0.249183936   0.000052289   0.499205051
   0.249225578   0.499772243   0.001065170
   0.249182812   0.499513723   0.498811995
   0.750719470   0.000107446   0.001519035
   0.751182673   0.000383159   0.498786839
   0.751135473   0.499428345   0.001043549
   0.750897375   0.499505617   0.498988514
   0.000847855   0.248791318   0.001208682
   0.000657672   0.248849360   0.499233239
   0.000657672   0.750766761   0.001150640
   0.000845175   0.751420602   0.498579398
   0.499127861   0.249003464   0.000996536
   0.499089814   0.248996527   0.498791943
   0.499089814   0.751208057   0.001003473
   0.499499815   0.751182449   0.498817551
   0.002185353   0.000765772   0.249234228
   0.000724303   0.999641116   0.749898517
   0.000724303   0.500101483   0.250358884
   0.001192514   0.500126869   0.749873131
   0.498294038   0.999441766   0.250558234
   0.498583567   0.999906306   0.749964346
   0.498583567   0.500035654   0.250093694
   0.499064069   0.500600130   0.749399870
Mg28Ni4O32
   1.00000000
   8.486633227   0.000621092  -0.000621092
   0.000621091   8.485237954   0.000412223
  -0.000621091   0.000412223   8.485237954
  Ni  Mg  O
  4  28  32
Direct configuration=     9
   0.999722025   0.000082496   0.000494757
   0.999722025   0.249505243   0.249917504
   0.249162257   0.999909849   0.250090151
   0.250717286   0.750291843   0.499708157
   0.001787631   0.999921203   0.499006728
   0.001489979   0.500024640   0.000909920
   0.000209508   0.500131169   0.499290730
   0.499639755   0.000259949   0.000971931
   0.498579949   0.000449981   0.499334960
   0.498449808   0.500082315   0.000471069
   0.499860874   0.499641533   0.498951016
   0.001489979   0.249090080   0.749975360
   0.001787631   0.750993272   0.250078797
   0.000209508   0.750709270   0.749868831
   0.499639755   0.249028069   0.249740051
   0.498449808   0.249528931   0.749917685
   0.498579949   0.750665040   0.249550019
   0.499860874   0.751048984   0.750358467
   0.249144491   0.000264883   0.750193708
   0.249144491   0.499806292   0.249735117
   0.249700537   0.500039956   0.749960044
   0.751118568   0.999986212   0.250013788
   0.750701980   0.000068511   0.750278768
   0.750701980   0.499721232   0.249931489
   0.750781203   0.499768079   0.750231921
   0.248826301   0.248109869   0.001890131
   0.248816004   0.249624821   0.497577938
   0.248816004   0.752422062   0.000375179
   0.751171204   0.249580817   0.000419183
   0.750860399   0.248614291   0.500058903
   0.750860399   0.749941097   0.001385709
   0.750929631   0.751415160   0.498584840
   0.248555083   0.248885946   0.249668628
   0.249301801   0.249111871   0.750268270
   0.249420419   0.750640355   0.250239714
   0.249053222   0.751108145   0.750218690
   0.750636176   0.248589445   0.250212675
   0.751019467   0.248794330   0.750377750
   0.751191932   0.751192602   0.249734702
   0.751031517   0.751102096   0.750347713
   0.248555083   0.000331372   0.001114054
   0.249420419   0.999760286   0.499359645
   0.249301801   0.499731730   0.000888129
   0.249053222   0.499781310   0.498891855
   0.750636176   0.999787325   0.001410555
   0.751191932   0.000265298   0.498807398
   0.751019467   0.499622250   0.001205670
   0.751031517   0.499652287   0.498897904
   0.000809794   0.249083465   0.000916535
   0.000527972   0.248897612   0.499189480
   0.000527972   0.750810520   0.001102388
   0.001323141   0.751314626   0.498685374
   0.498767544   0.249026944   0.000973056
   0.498981934   0.248749791   0.498804629
   0.498981934   0.751195371   0.001250209
   0.499498129   0.751228626   0.498771374
   0.001730461   0.000516769   0.249483231
   0.000586314   0.999591159   0.749870820
   0.000586314   0.500129180   0.250408841
   0.001340410   0.500157529   0.749842471
   0.498446438   0.999597763   0.250402237
   0.498788448   0.000245177   0.749961829
   0.498788448   0.500038171   0.249754823
   0.498963723   0.500333499   0.749666501
Mg28Ni4O32
   1.00000000
   8.495728096   0.000745734  -0.000745734
   0.000745732   8.494046626   0.000498520
  -0.000745732   0.000498520   8.494046626
  Ni  Mg  O
  4  28  32
Direct configuration=     10
   0.999564403   0.000153077   0.000468229
   0.999564403   0.249531771   0.249846923
   0.249125501   0.999874679   0.250125321
   0.250675830   0.750137534   0.499862466
   0.001650059   0.999907166   0.499175845
   0.000932888   0.499868570   0.000663461
   0.000167811   0.500203145   0.499422412
   0.499781724   0.000216186   0.000641572
   0.498675552   0.000314391   0.499715062
   0.498861188   0.500050329   0.000154862
   0.500014231   0.499761823   0.499254764
   0.000932888   0.249336539   0.750131430
   0.001650059   0.750824155   0.250092834
   0.000167811   0.750577588   0.749796855
   0.499781724   0.249358428   0.249783814
   0.498861188   0.249845138   0.749949671
   0.498675552   0.750284938   0.249685609
   0.500014231   0.750745236   0.750238177
   0.249366889   0.999956555   0.750157039
   0.249366889   0.499842961   0.250043445
   0.250055135   0.500241357   0.749758643
   0.751113060   0.000202257   0.249797743
   0.750496177   0.000053426   0.750478296
   0.750496177   0.499521704   0.249946574
   0.750459558   0.499766976   0.750233024
   0.248936836   0.248360037   0.001639963
   0.249105825   0.249926764   0.497824122
   0.249105825   0.752175878   0.000073236
   0.751003331   0.249808074   0.000191926
   0.750717151   0.249084252   0.500195656
   0.750717151   0.749804344   0.000915748
   0.750587397   0.750876408   0.499123592
   0.249059131   0.249318730   0.249843982
   0.249312038   0.249261410   0.750144350
   0.249593103   0.750325838   0.250105417
   0.249123862   0.750974170   0.750317389
   0.750227066   0.248696812   0.250371309
   0.750874199   0.248807758   0.750181727
   0.751085660   0.751115840   0.250021375
   0.750979105   0.751026095   0.750059218
   0.249059131   0.000156018   0.000681270
   0.249593103   0.999894583   0.499674162
   0.249312038   0.499855650   0.000738590
   0.249123862   0.499682611   0.499025830
   0.750227066   0.999628691   0.001303188
   0.751085660   0.999978625   0.498884160
   0.750874199   0.499818273   0.001192242
   0.750979105   0.499940782   0.498973905
   0.000714614   0.249548614   0.000451386
   0.000522051   0.248945031   0.499516952
   0.000522051   0.750483048   0.001054969
   0.001162094   0.751179068   0.498820932
   0.498672636   0.249036036   0.000963964
   0.498950537   0.248718829   0.498853809
   0.498950537   0.751146191   0.001281171
   0.499931309   0.751159755   0.498840245
   0.001101592   0.000194101   0.249805899
   0.000459960   0.999803711   0.749678662
   0.000459960   0.500321338   0.250196289
   0.001274797   0.500027386   0.749972614
   0.498968667   0.999876456   0.250123544
   0.499063514   0.000522294   0.750111131
   0.499063514   0.499888869   0.249477706
   0.499049395   0.500055699   0.749944301
Mg28Ni4O32
   1.00000000
   8.499096433   0.000795038  -0.000795038
   0.000795036   8.497299927   0.000532897
  -0.000795036   0.000532897   8.497299927
  Ni  Mg  O
  4  28  32
Direct configuration=     11
   0.999553955   0.000257244   0.000551097
   0.999553955   0.249448903   0.249742756
   0.249016552   0.999800024   0.250199976
   0.250695033   0.750092127   0.499907873