Mg28Ni4O32
   1.00000000
   8.440344781  -0.000000411   0.000000411
  -0.000000411   8.440335552  -0.000001425
   0.000000411  -0.000001425   8.440335552
  Ni  Mg  O
  4  28  32
Direct configuration=     1
   0.000000000   0.000095708   0.000095708
   0.000000000   0.249904292   0.249904292
   0.250090949   0.500000914   0.749999086
   0.749909051   0.749999086   0.500000914
   0.999892934   0.999960625   0.499927244
   0.000107066   0.499927244   0.999960625
   0.000000000   0.500016793   0.500016793
   0.500000000   0.999985371   0.999985371
   0.500101186   0.999887284   0.500026863
   0.499898814   0.500026863   0.999887284
   0.500000000   0.500089666   0.500089666
   0.000107066   0.250039375   0.750072756
   0.999892934   0.750072756   0.250039375
   0.000000000   0.749983207   0.749983207
   0.500000000   0.250014629   0.250014629
   0.499898814   0.250112716   0.749973137
   0.500101186   0.749973137   0.250112716
   0.500000000   0.749910334   0.749910334
   0.249812166   0.000069477   0.249930523
   0.249895780   0.999997392   0.750090426
   0.249895780   0.499909574   0.250002608
   0.750158193   0.999984974   0.250015026
   0.750063425   0.999908074   0.749972519
   0.750063425   0.500027481   0.250091926
   0.750022211   0.500121070   0.749878930
   0.249841807   0.250015026   0.999984974
   0.249936575   0.250091926   0.500027481
   0.249936575   0.749972519   0.999908074
   0.249977789   0.749878930   0.500121070
   0.750187834   0.249930523   0.000069477
   0.750104220   0.250002608   0.499909574
   0.750104220   0.750090426   0.999997392
   0.250179313   0.250003307   0.249961071
   0.249957111   0.249737871   0.749988645
   0.249957904   0.749968781   0.250035213
   0.250003039   0.750261676   0.749940893
   0.749820687   0.249961071   0.250003307
   0.750042096   0.250035213   0.749968781
   0.750042889   0.749988645   0.249737871
   0.749996961   0.749940893   0.750261676
   0.250179313   0.000038929   0.999996693
   0.249957904   0.999964787   0.500031219
   0.249957111   0.500011355   0.000262129
   0.250003039   0.500059107   0.499738324
   0.749820687   0.999996693   0.000038929
   0.750042889   0.000262129   0.500011355
   0.750042096   0.500031219   0.999964787
   0.749996961   0.499738324   0.500059107
   0.999971474   0.250112486   0.999887514
   0.999935409   0.249933066   0.500197951
   0.999935409   0.749802049   0.000066934
   0.000288036   0.750074109   0.499925891
   0.500004989   0.249934242   0.000065758
   0.500039509   0.249990715   0.499943074
   0.500039509   0.750056926   0.000009285
   0.499760167   0.750021186   0.499978814
   0.000028526   0.999887514   0.250112486
   0.000064591   0.000066934   0.749802049
   0.000064591   0.500197951   0.249933066
   0.999711964   0.499925891   0.750074109
   0.499995011   0.000065758   0.249934242
   0.499960491   0.000009285   0.750056926
   0.499960491   0.499943074   0.249990715
   0.500239833   0.499978814   0.750021186
Mg28Ni4O32
   1.00000000
   8.442073507  -0.000002485   0.000002485
  -0.000002485   8.442018373  -0.000009169
   0.000002485  -0.000009169   8.442018373
  Ni  Mg  O
  4  28  32
Direct configuration=     2
   0.000000000   0.000473787   0.000473787
   0.000000000   0.249526213   0.249526213
   0.250458021   0.500006455   0.749993545
   0.749541979   0.749993545   0.500006455
   0.999488195   0.999795865   0.499659784
   0.000511805   0.499659784   0.999795865
   0.000000000   0.500084437   0.500084437
   0.500000000   0.999933560   0.999933560
   0.500475763   0.999454958   0.500136513
   0.499524237   0.500136513   0.999454958
   0.500000000   0.500418304   0.500418304
   0.000511805   0.250204135   0.750340216
   0.999488195   0.750340216   0.250204135
   0.000000000   0.749915563   0.749915563
   0.500000000   0.250066440   0.250066440
   0.499524237   0.250545042   0.749863487
   0.500475763   0.749863487   0.250545042
   0.500000000   0.749581696   0.749581696
   0.249055415   0.000324137   0.249675863
   0.249447202   0.999988275   0.750438367
   0.249447202   0.499561633   0.250011725
   0.750780866   0.999939285   0.250060715
   0.750330684   0.999576103   0.749867713
   0.750330684   0.500132287   0.250423897
   0.750156281   0.500590412   0.749409588
   0.249219134   0.250060715   0.999939285
   0.249669316   0.250423897   0.500132287
   0.249669316   0.749867713   0.999576103
   0.249843719   0.749409588   0.500590412
   0.750944585   0.249675863   0.000324137
   0.750552798   0.250011725   0.499561633
   0.750552798   0.750438367   0.999988275
   0.250851769   0.249992429   0.249782080
   0.249773580   0.248691187   0.749960382
   0.249777971   0.749866513   0.250151443
   0.250006495   0.751311992   0.749727556
   0.749148231   0.249782080   0.249992429
   0.750222029   0.250151443   0.749866513
   0.750226420   0.749960382   0.248691187
   0.749993505   0.749727556   0.751311992
   0.250851769   0.000217920   0.000007571
   0.249777971   0.999848557   0.500133487
   0.249773580   0.500039618   0.001308813
   0.250006495   0.500272444   0.498688008
   0.749148231   0.000007571   0.000217920
   0.750226420   0.001308813   0.500039618
   0.750222029   0.500133487   0.999848557
   0.749993505   0.498688008   0.500272444
   0.999883160   0.250558240   0.999441760
   0.999700079   0.249683335   0.500983240
   0.999700079   0.749016760   0.000316665
   0.001444302   0.750360334   0.499639666
   0.499996702   0.249697502   0.000302498
   0.500170539   0.249979223   0.499735800
   0.500170539   0.750264200   0.000020777
   0.498790435   0.750082928   0.499917072
   0.000116840   0.999441760   0.250558240
   0.000299921   0.000316665   0.749016760
   0.000299921   0.500983240   0.249683335
   0.998555698   0.499639666   0.750360334
   0.500003298   0.000302498   0.249697502
   0.499829461   0.000020777   0.750264200
   0.499829461   0.499735800   0.249979223
   0.501209565   0.499917072   0.750082928
Mg28Ni4O32
   1.00000000
   8.442566200  -0.000003091   0.000003091
  -0.000003091   8.442498114  -0.000011782
   0.000003091  -0.000011782   8.442498114
  Ni  Mg  O
  4  28  32
Direct configuration=     3
   0.000000000   0.000501375   0.000501375
   0.000000000   0.249498625   0.249498625
   0.250493697   0.500008168   0.749991832
   0.749506303   0.749991832   0.500008168
   0.999477069   0.999776999   0.499660786
   0.000522931   0.499660786   0.999776999
   0.000000000   0.500089691   0.500089691
   0.500000000   0.999935576   0.999935576
   0.500478211   0.999439004   0.500147258
   0.499521789   0.500147258   0.999439004
   0.500000000   0.500416257   0.500416257
   0.000522931   0.250223001   0.750339214
   0.999477069   0.750339214   0.250223001
   0.000000000   0.749910309   0.749910309
   0.500000000   0.250064424   0.250064424
   0.499521789   0.250560996   0.749852742
   0.500478211   0.749852742   0.250560996
   0.500000000   0.749583743   0.749583743
   0.248993227   0.000323330   0.249676670
   0.249384844   0.999989249   0.750454365
   0.249384844   0.499545635   0.250010751
   0.750819544   0.999948361   0.250051639
   0.750363991   0.999581956   0.749864777
   0.750363991   0.500135223   0.250418044
   0.750204579   0.500613372   0.749386628
   0.249180456   0.250051639   0.999948361
   0.249636009   0.250418044   0.500135223
   0.249636009   0.749864777   0.999581956
   0.249795421   0.749386628   0.500613372
   0.751006773   0.249676670   0.000323330
   0.750615156   0.250010751   0.499545635
   0.750615156   0.750454365   0.999989249
   0.250861388   0.249969227   0.249749081
   0.249749319   0.248614783   0.749972932
   0.249753005   0.749879618   0.250138113
   0.249996632   0.751393753   0.749733724
   0.749138612   0.249749081   0.249969227
   0.750246995   0.250138113   0.749879618
   0.750250681   0.749972932   0.248614783
   0.750003368   0.749733724   0.751393753
   0.250861388   0.000250919   0.000030773
   0.249753005   0.999861887   0.500120382
   0.249749319   0.500027068   0.001385217
   0.249996632   0.500266276   0.498606247
   0.749138612   0.000030773   0.000250919
   0.750250681   0.001385217   0.500027068
   0.750246995   0.500120382   0.999861887
   0.750003368   0.498606247   0.500266276
   0.999900081   0.250587755   0.999412245
   0.999704743   0.249681066   0.501037806
   0.999704743   0.748962194   0.000318934
   0.001534706   0.750371478   0.499628522
   0.499972314   0.249703470   0.000296530
   0.500156309   0.249999657   0.499738322
   0.500156309   0.750261678   0.000000343
   0.498708130   0.750067311   0.499932689
   0.000099919   0.999412245   0.250587755
   0.000295257   0.000318934   0.748962194
   0.000295257   0.501037806   0.249681066
   0.998465294   0.499628522   0.750371478
   0.500027686   0.000296530   0.249703470
   0.499843691   0.000000343   0.750261678
   0.499843691   0.499738322   0.249999657
   0.501291870   0.499932689   0.750067311
Mg28Ni4O32
   1.00000000
   8.451216189  -0.000013708   0.000013708
  -0.000013708   8.450920960  -0.000058734
   0.000013708  -0.000058734   8.450920960
  Ni  Mg  O
  4  28  32
Direct configuration=     4
   1.000000000   0.000796896   0.000796896
   1.000000000   0.249203104   0.249203104
   0.250954823   0.500033214   0.749966786
   0.749045177   0.749966786   0.500033214
   0.999494558   0.999524626   0.499830912
   0.000505442   0.499830912   0.999524626
   1.000000000   0.500142928   0.500142928
   0.500000000   0.000003371   0.000003371
   0.500304741   0.999397258   0.500283742
   0.499695259   0.500283742   0.999397258
   0.500000000   0.500181664   0.500181664
   0.000505442   0.250475374   0.750169088
   0.999494558   0.750169088   0.250475374
   1.000000000   0.749857072   0.749857072
   0.500000000   0.249996629   0.249996629
   0.499695259   0.250602742   0.749716258
   0.500304741   0.749716258   0.250602742
   0.500000000   0.749818336   0.749818336
   0.248285540   0.000159232   0.249840768
   0.248494202   0.000017317   0.750560045
   0.248494202   0.499439955   0.249982683
   0.751168770   0.000138339   0.249861661
   0.750826728   0.999883561   0.749876946
   0.750826728   0.500123054   0.250116439
   0.751001355   0.500768669   0.749231331
   0.248831230   0.249861661   0.000138339
   0.249173272   0.250116439   0.500123054
   0.249173272   0.749876946   0.999883561
   0.248998645   0.749231331   0.500768669
   0.751714460   0.249840768   0.000159232
   0.751505798   0.249982683   0.499439955
   0.751505798   0.750560045   0.000017317
   0.250628682   0.249540018   0.249257622
   0.249410611   0.247837543   0.750213377
   0.249388131   0.750183298   0.249826443
   0.249791388   0.752270111   0.749980916
   0.749371318   0.249257622   0.249540018
   0.750611869   0.249826443   0.750183298
   0.750589389   0.750213377   0.247837543
   0.750208612   0.749980916   0.752270111
   0.250628682   0.000742378   0.000459982
   0.249388131   0.000173557   0.499816702
   0.249410611   0.499786623   0.002162457
   0.249791388   0.500019084   0.497729889
   0.749371318   0.000459982   0.000742378
   0.750589389   0.002162457   0.499786623
   0.750611869   0.499816702   0.000173557
   0.750208612   0.497729889   0.500019084
   0.000260523   0.250872230   0.999127770
   0.999936338   0.249787532   0.501575783
   0.999936338   0.748424217   0.000212468
   0.002500181   0.750400025   0.499599975
   0.499542734   0.249952470   0.000047530
   0.499819226   0.250366475   0.499900498
   0.499819226   0.750099502   0.999633525
   0.497760980   0.749749132   0.500250868
   0.999739477   0.999127770   0.250872230
   0.000063662   0.000212468   0.748424217
   0.000063662   0.501575783   0.249787532
   0.997499819   0.499599975   0.750400025
   0.500457266   0.000047530   0.249952470
   0.500180774   0.999633525   0.750099502
   0.500180774   0.499900498   0.250366475
   0.502239020   0.500250868   0.749749132
Mg28Ni4O32
   1.00000000
   8.457703457  -0.000021636   0.000021636
  -0.000021636   8.457237348  -0.000094805
   0.000021636  -0.000094805   8.457237348
  Ni  Mg  O
  4  28  32
Direct configuration=     5
   1.000000000   0.000894873   0.000894873
   1.000000000   0.249105127   0.249105127
   0.251186977   0.500042627   0.749957373
   0.748813023   0.749957373   0.500042627
   0.999606312   0.999401247   0.500020428
   0.000393688   0.500020428   0.999401247
   1.000000000   0.500150895   0.500150895
   0.500000000   0.000066984   0.000066984
   0.500069110   0.999502381   0.500346689
   0.499930890   0.500346689   0.999502381
   0.500000000   0.499911413   0.499911413
   0.000393688   0.250598753   0.749979572
   0.999606312   0.749979572   0.250598753
   1.000000000   0.749849105   0.749849105
   0.500000000   0.249933016   0.249933016
   0.499930890   0.250497619   0.749653311
   0.500069110   0.749653311   0.250497619
   0.500000000   0.750088587   0.750088587
   0.248030281   0.999967041   0.250032959
   0.248019051   0.000047886   0.750549104
   0.248019051   0.499450896   0.249952114
   0.751211505   0.000273342   0.249726658
   0.751066927   0.000191482   0.749926578
   0.751066927   0.500073422   0.249808518
   0.751470237   0.500740573   0.749259427
   0.248788495   0.249726658   0.000273342
   0.248933073   0.249808518   0.500073422
   0.248933073   0.749926578   0.000191482
   0.248529763   0.749259427   0.500740573
   0.751969719   0.250032959   0.999967041
   0.751980949   0.249952114   0.499450896
   0.751980949   0.750549104   0.000047886
   0.250231133   0.249238712   0.249001329
   0.249240487   0.247668639   0.750372267
   0.249178046   0.750422744   0.249584265
   0.249614856   0.752510061   0.750229966
   0.749768867   0.249001329   0.249238712
   0.750821954   0.249584265   0.750422744
   0.750759513   0.750372267   0.247668639
   0.750385144   0.750229966   0.752510061
   0.250231133   0.000998671   0.000761288
   0.249178046   0.000415735   0.499577256
   0.249240487   0.499627733   0.002331361
   0.249614856   0.499770034   0.497489939
   0.749768867   0.000761288   0.000998671
   0.750759513   0.002331361   0.499627733
   0.750821954   0.499577256   0.000415735
   0.750385144   0.497489939   0.499770034
   0.000526754   0.250929173   0.999070827
   0.000178567   0.249939825   0.501680299
   0.000178567   0.748319701   0.000060175
   0.002748438   0.750314254   0.499685746
   0.499278618   0.250195041   0.999804959
   0.499551800   0.250588871   0.500063584
   0.499551800   0.749936416   0.999411129
   0.497422821   0.749523703   0.500476297
   0.999473246   0.999070827   0.250929173
   0.999821433   0.000060175   0.748319701
   0.999821433   0.501680299   0.249939825
   0.997251562   0.499685746   0.750314254
   0.500721382   0.999804959   0.250195041
   0.500448200   0.999411129   0.749936416
   0.500448200   0.500063584   0.250588871
   0.502577179   0.500476297   0.749523703
Mg28Ni4O32
   1.00000000
   8.465635961  -0.000031299   0.000031299
  -0.000031299   8.464959099  -0.000139800
   0.000031299  -0.000139800   8.464959099
  Ni  Mg  O
  4  28  32
Direct configuration=     6
   1.000000000   0.000925623   0.000925623
   1.000000000   0.249074377   0.249074377
   0.251373647   0.500038972   0.749961028
   0.748626353   0.749961028   0.500038972
   0.999746319   0.999318037   0.500234226
   0.000253681   0.500234226   0.999318037
   1.000000000   0.500129823   0.500129823
   0.500000000   0.000140572   0.000140572
   0.499766255   0.999694052   0.500387111
   0.500233745   0.500387111   0.999694052
   0.500000000   0.499575997   0.499575997
   0.000253681   0.250681963   0.749765774
   0.999746319   0.749765774   0.250681963
   1.000000000   0.749870177   0.749870177
   0.500000000   0.249859428   0.249859428
   0.500233745   0.250305948   0.749612889
   0.499766255   0.749612889   0.250305948
   0.500000000   0.750424003   0.750424003
   0.247950132   0.999732306   0.250267694
   0.247670080   0.000094050   0.750509806
   0.247670080   0.499490194   0.249905950
   0.751106117   0.000388087   0.249611913
   0.751240675   0.000543377   0.750012299
   0.751240675   0.499987701   0.249456623
   0.751805677   0.500633712   0.749366288
   0.248893883   0.249611913   0.000388087
   0.248759325   0.249456623   0.499987701
   0.248759325   0.750012299   0.000543377
   0.248194323   0.749366288   0.500633712
   0.752049868   0.250267694   0.999732306
   0.752329920   0.249905950   0.499490194
   0.752329920   0.750509806   0.000094050
   0.249662398   0.248946384   0.248852549
   0.249136478   0.247818919   0.750496687
   0.248993829   0.750657278   0.249356754
   0.249391513   0.752432726   0.750529777
   0.750337602   0.248852549   0.248946384
   0.751006171   0.249356754   0.750657278
   0.750863522   0.750496687   0.247818919
   0.750608487   0.750529777   0.752432726
   0.249662398   0.001147451   0.001053616
   0.248993829   0.000643246   0.499342722
   0.249136478   0.499503313   0.002181081
   0.249391513   0.499470223   0.497567274
   0.750337602   0.001053616   0.001147451
   0.750863522   0.002181081   0.499503313
   0.751006171   0.499342722   0.000643246
   0.750608487   0.497567274   0.499470223
   0.000776101   0.250884736   0.999115264
   0.000466607   0.250133073   0.501561443
   0.000466607   0.748438557   0.999866927
   0.002612022   0.750143296   0.499856704
   0.499090798   0.250463959   0.999536041
   0.499287526   0.250731521   0.500231500
   0.499287526   0.749768500   0.999268479
   0.497344484   0.749324182   0.500675818
   0.999223899   0.999115264   0.250884736
   0.999533393   0.999866927   0.748438557
   0.999533393   0.501561443   0.250133073
   0.997387978   0.499856704   0.750143296
   0.500909202   0.999536041   0.250463959
   0.500712474   0.999268479   0.749768500
   0.500712474   0.500231500   0.250731521
   0.502655516   0.500675818   0.749324182
Mg28Ni4O32
   1.00000000
   8.472907126  -0.000040197   0.000040197
  -0.000040197   8.472034161  -0.000181817
   0.000040197  -0.000181817   8.472034161
  Ni  Mg  O
  4  28  32
Direct configuration=     7
   1.000000000   0.000914885   0.000914885
   0.000000000   0.249085115   0.249085115
   0.251471805   0.500019503   0.749980497
   0.748528195   0.749980497   0.500019503
   0.999781235   0.999296319   0.500335204
   0.000218765   0.500335204   0.999296319
   1.000000000   0.500089804   0.500089804
   0.500000000   0.000187759   0.000187759
   0.499572102   0.999843879   0.500397278
   0.500427898   0.500397278   0.999843879
   0.500000000   0.499360198   0.499360198
   0.000218765   0.250703681   0.749664796
   0.999781235   0.749664796   0.250703681
   1.000000000   0.749910196   0.749910196
   0.500000000   0.249812241   0.249812241
   0.500427898   0.250156121   0.749602722
   0.499572102   0.749602722   0.250156121
   0.500000000   0.750639802   0.750639802
   0.248020906   0.999590176   0.250409824
   0.247581807   0.000140275   0.750515288
   0.247581807   0.499484712   0.249859725
   0.750947116   0.000408858   0.249591142
   0.751288450   0.000733593   0.750092858
   0.751288450   0.499907142   0.249266407
   0.751821488   0.500551605   0.749448395
   0.249052884   0.249591142   0.000408858
   0.248711550   0.249266407   0.499907142
   0.248711550   0.750092858   0.000733593
   0.248178512   0.749448395   0.500551605
   0.751979094   0.250409824   0.999590176
   0.752418193   0.249859725   0.499484712
   0.752418193   0.750515288   0.000140275
   0.249231979   0.248803964   0.248897014
   0.249149097   0.248177065   0.750506953
   0.248896938   0.750744682   0.249288772
   0.249211393   0.752117890   0.750724007
   0.750768021   0.248897014   0.248803964
   0.751103062   0.249288772   0.750744682
   0.750850903   0.750506953   0.248177065
   0.750788607   0.750724007   0.752117890
   0.249231979   0.001102986   0.001196036
   0.248896938   0.000711228   0.499255318
   0.249149097   0.499493047   0.001822935
   0.249211393   0.499275993   0.497882110
   0.750768021   0.001196036   0.001102986
   0.750850903   0.001822935   0.499493047
   0.751103062   0.499255318   0.000711228
   0.750788607   0.497882110   0.499275993
   0.000871830   0.250796659   0.999203341
   0.000635596   0.250240970   0.501310870
   0.000635596   0.748689130   0.999759030
   0.002179860   0.749982543   0.500017457
   0.499105357   0.250597000   0.999403000
   0.499182776   0.250683807   0.500281733
   0.499182776   0.749718267   0.999316193
   0.497503879   0.749265735   0.500734265
   0.999128170   0.999203341   0.250796659
   0.999364404   0.999759030   0.748689130
   0.999364404   0.501310870   0.250240970
   0.997820140   0.500017457   0.749982543
   0.500894643   0.999403000   0.250597000
   0.500817224   0.999316193   0.749718267
   0.500817224   0.500281733   0.250683807
   0.502496121   0.500734265   0.749265735
Mg28Ni4O32
   1.00000000
   8.483355359  -0.000053291   0.000053291
  -0.000053291   8.482195981  -0.000242938
   0.000053291  -0.000242938   8.482195981
  Ni  Mg  O
  4  28  32
Direct configuration=     8
   1.000000000   0.000904052   0.000904052
   0.000000000   0.249095948   0.249095948
   0.251545765   0.499978045   0.750021955
   0.748454235   0.750021955   0.499978045
   0.999649906   0.999306081   0.500313030
   0.000350094   0.500313030   0.999306081
   1.000000000   0.500025316   0.500025316
   0.500000000   0.000220390   0.000220390
   0.499475001   0.999944173   0.500392847
   0.500524999   0.500392847   0.999944173
   0.500000000   0.499241650   0.499241650
   0.000350094   0.250693919   0.749686970
   0.999649906   0.749686970   0.250693919
   1.000000000   0.749974684   0.749974684
   0.500000000   0.249779610   0.249779610
   0.500524999   0.250055827   0.749607153
   0.499475001   0.749607153   0.250055827
   0.500000000   0.750758350   0.750758350
   0.248188815   0.999530250   0.250469750
   0.247698869   0.000201883   0.750622048
   0.247698869   0.499377952   0.249798117
   0.750745738   0.000320983   0.249679017
   0.751248890   0.000767281   0.750183596
   0.751248890   0.499816404   0.249232719
   0.751510926   0.500534477   0.749465523
   0.249254262   0.249679017   0.000320983
   0.248751110   0.249232719   0.499816404
   0.248751110   0.750183596   0.000767281
   0.248489074   0.749465523   0.500534477
   0.751811185   0.250469750   0.999530250
   0.752301131   0.249798117   0.499377952
   0.752301131   0.750622048   0.000201883
   0.248894000   0.248786208   0.249149782
   0.249287241   0.248769169   0.750388107
   0.248836942   0.750662097   0.249409328
   0.249033038   0.751552672   0.750837936
   0.751106000   0.249149782   0.248786208
   0.751163058   0.249409328   0.750662097
   0.750712759   0.750388107   0.248769169
   0.750966962   0.750837936   0.751552672
   0.248894000   0.000850218   0.001213792
   0.248836942   0.000590672   0.499337903
   0.249287241   0.499611893   0.001230831
   0.249033038   0.499162064   0.498447328
   0.751106000   0.001213792   0.000850218
   0.750712759   0.001230831   0.499611893
   0.751163058   0.499337903   0.000590672
   0.750966962   0.498447328   0.499162064
   0.000824735   0.250686934   0.999313066
   0.000685260   0.250241755   0.500913867
   0.000685260   0.749086133   0.999758245
   0.001392684   0.749817381   0.500182619
   0.499360008   0.250583257   0.999416743
   0.499254356   0.250397377   0.500175050
   0.499254356   0.749824950   0.999602623
   0.497865236   0.749352065   0.500647935
   0.999175265   0.999313066   0.250686934
   0.999314740   0.999758245   0.749086133
   0.999314740   0.500913867   0.250241755
   0.998607316   0.500182619   0.749817381
   0.500639992   0.999416743   0.250583257
   0.500745644   0.999602623   0.749824950
   0.500745644   0.500175050   0.250397377
   0.502134764   0.500647935   0.749352065
Mg28Ni4O32
   1.00000000
   8.493126541  -0.000066322   0.000066322
  -0.000066322   8.491693210  -0.000300817
   0.000066322  -0.000300817   8.491693210
  Ni  Mg  O
  4  28  32
Direct configuration=     9
   1.000000000   0.000923102   0.000923102
   0.000000000   0.249076898   0.249076898
   0.251545115   0.499937200   0.750062800
   0.748454885   0.750062800   0.499937200
   0.999335417   0.999334778   0.500116360
   0.000664583   0.500116360   0.999334778
   1.000000000   0.499975444   0.499975444
   0.500000000   0.000214149   0.000214149
   0.499599083   0.999878869   0.500378369
   0.500400917   0.500378369   0.999878869
   0.500000000   0.499359734   0.499359734
   0.000664583   0.250665222   0.749883640
   0.999335417   0.749883640   0.250665222
   1.000000000   0.750024556   0.750024556
   0.500000000   0.249785851   0.249785851
   0.500400917   0.250121131   0.749621631
   0.499599083   0.749621631   0.250121131
   0.500000000   0.750640266   0.750640266
   0.248343682   0.999636621   0.250363379
   0.248017494   0.000242966   0.750825698
   0.248017494   0.499174302   0.249757034
   0.750641245   0.000125913   0.249874087
   0.751125801   0.000535701   0.750221265
   0.751125801   0.499778735   0.249464299
   0.750952729   0.500657395   0.749342605
   0.249358755   0.249874087   0.000125913
   0.248874199   0.249464299   0.499778735
   0.248874199   0.750221265   0.000535701
   0.249047271   0.749342605   0.500657395
   0.751656318   0.250363379   0.999636621
   0.751982506   0.249757034   0.499174302
   0.751982506   0.750825698   0.000242966
   0.248964417   0.248974226   0.249519787
   0.249525711   0.249250634   0.750159975
   0.248857514   0.750350928   0.249753063
   0.249005464   0.751057382   0.750740324
   0.751035583   0.249519787   0.248974226
   0.751142486   0.249753063   0.750350928
   0.750474289   0.750159975   0.249250634
   0.750994536   0.750740324   0.751057382
   0.248964417   0.000480213   0.001025774
   0.248857514   0.000246937   0.499649072
   0.249525711   0.499840025   0.000749366
   0.249005464   0.499259676   0.498942618
   0.751035583   0.001025774   0.000480213
   0.750474289   0.000749366   0.499840025
   0.751142486   0.499649072   0.000246937
   0.750994536   0.498942618   0.499259676
   0.000607828   0.250645989   0.999354011
   0.000493539   0.250048189   0.500602089
   0.000493539   0.749397911   0.999951811
   0.000662306   0.749779981   0.500220019
   0.499800342   0.250337535   0.999662465
   0.499565905   0.249952558   0.499879227
   0.499565905   0.750120773   0.000047442
   0.498225376   0.749592497   0.500407503
   0.999392172   0.999354011   0.250645989
   0.999506461   0.999951811   0.749397911
   0.999506461   0.500602089   0.250048189
   0.999337694   0.500220019   0.749779981
   0.500199658   0.999662465   0.250337535
   0.500434095   0.000047442   0.750120773
   0.500434095   0.499879227   0.249952558
   0.501774624   0.500407503   0.749592497
Mg28Ni4O32
   1.00000000
   8.498042817  -0.000074174   0.000074174
  -0.000074174   8.496463974  -0.000330875
   0.000074174  -0.000330875   8.496463974
  Ni  Mg  O
  4  28  32
Direct configuration=     10
   1.000000000   0.000953195   0.000953195
   1.000000000   0.249046805   0.249046805
   0.251455489   0.499928454   0.750071546
   0.748544511   0.750071546   0.499928454
   0.999042829   0.999356652   0.499884834
   0.000957171   0.499884834   0.999356652
   1.000000000   0.499971640   0.499971640
   0.500000000   0.000182824   0.000182824
   0.499845912   0.999698117   0.500363704
   0.500154088   0.500363704   0.999698117
   0.500000000   0.499626739   0.499626739
   0.000957171   0.250643348   0.750115166
   0.999042829   0.750115166   0.250643348
   1.000000000   0.750028360   0.750028360
   0.500000000   0.249817176   0.249817176
   0.500154088   0.250301883   0.749636296
   0.499845912   0.749636296   0.250301883
   0.500000000   0.750373261   0.750373261
   0.248404420   0.999824264   0.250175736
   0.248352654   0.000236490   0.750988200
   0.248352654   0.499011800   0.249763510
   0.750668363   0.999943741   0.250056259
   0.750992202   0.000202792   0.750183065
   0.750992202   0.499816935   0.249797208
   0.750508462   0.500838688   0.749161312
   0.249331637   0.250056259   0.999943741
   0.249007798   0.249797208   0.499816935
   0.249007798   0.750183065   0.000202792
   0.249491538   0.749161312   0.500838688
   0.751595580   0.250175736   0.999824264
   0.751647346   0.249763510   0.499011800
   0.751647346   0.750988200   0.000236490
   0.249388386   0.249258763   0.249767802
   0.249739413   0.249345275   0.749969035
   0.248945032   0.749980737   0.250121485
   0.249174885   0.750919224   0.750494287
   0.750611614   0.249767802   0.249258763
   0.751054968   0.250121485   0.749980737
   0.750260587   0.749969035   0.249345275
   0.750825115   0.750494287   0.750919224
   0.249388386   0.000232198   0.000741237
   0.248945032   0.999878515   0.500019263
   0.249739413   0.500030965   0.000654725
   0.249174885   0.499505713   0.499080776
   0.750611614   0.000741237   0.000232198
   0.750260587   0.000654725   0.500030965
   0.751054968   0.500019263   0.999878515
   0.750825115   0.499080776   0.499505713
   0.000374976   0.250691082   0.999308918
   0.000168406   0.249766383   0.500541200
   0.000168406   0.749458800   0.000233617
   0.000402773   0.749892750   0.500107250
   0.500152708   0.250010461   0.999989539
   0.499937505   0.249631992   0.499567737
   0.499937505   0.750432263   0.000368008
   0.498378714   0.749828530   0.500171470
   0.999625024   0.999308918   0.250691082
   0.999831594   0.000233617   0.749458800
   0.999831594   0.500541200   0.249766383
   0.999597227   0.500107250   0.749892750
   0.499847292   0.999989539   0.250010461
   0.500062495   0.000368008   0.750432263
   0.500062495   0.499567737   0.249631992
   0.501621286   0.500171470   0.749828530
Mg28Ni4O32
   1.00000000
   8.498528400  -0.000076565   0.000076565
  -0.000076565   8.496926146  -0.000335159
   0.000076565  -0.000335159   8.496926146
  Ni  Mg  O
  4  28  32
Direct configuration=     11
   1.000000000   0.000950877   0.000950877
   1.000000000   0.249049123   0.249049123
   0.251338778   0.499949956   0.750050044
   0.748661222   0.750050044   0.499949956