Mg28Ni4O32
   1.00000000
   8.440344366   0.000000000   0.000000000
   0.000000000   8.440344216  -0.000003342
   0.000000000  -0.000003342   8.440344216
  Ni  Mg  O
  4  28  32
Direct configuration=     1
   0.000000000   0.000002930   0.000023030
   0.000000000   0.499976970   0.499997070
   0.500000000   0.999940477   0.500059523
   0.000000000   0.250022698   0.249977302
   0.000000000   0.000071191   0.499928809
   0.000000000   0.499950749   0.000049251
   0.500000000   0.999990825   0.999998510
   0.500000000   0.500032695   0.999967305
   0.500000000   0.500001490   0.500009175
   0.000000000   0.249993257   0.750000156
   0.000000000   0.749999844   0.250006743
   0.000000000   0.749999495   0.750000505
   0.500000000   0.249882409   0.250117591
   0.500000000   0.249911365   0.749906000
   0.500000000   0.750094000   0.250088635
   0.500000000   0.750088778   0.749911222
   0.249967541   0.000042806   0.250006497
   0.250027100   0.999980765   0.749974830
   0.249864502   0.499945743   0.250079481
   0.249934538   0.500024464   0.749931863
   0.750032459   0.000042806   0.250006497
   0.749972900   0.999980765   0.749974830
   0.750135498   0.499945743   0.250079481
   0.750065462   0.500024464   0.749931863
   0.249864502   0.249920519   0.000054257
   0.249967541   0.249993503   0.499957194
   0.249934538   0.750068137   0.999975536
   0.250027100   0.750025170   0.500019235
   0.750135498   0.249920519   0.000054257
   0.750032459   0.249993503   0.499957194
   0.750065462   0.750068137   0.999975536
   0.749972900   0.750025170   0.500019235
   0.250072554   0.250013531   0.249986469
   0.249931341   0.249994994   0.750004586
   0.249931341   0.749995414   0.250005006
   0.249966892   0.750006753   0.749993247
   0.749927446   0.250013531   0.249986469
   0.750068659   0.249994994   0.750004586
   0.750068659   0.749995414   0.250005006
   0.750033108   0.750006753   0.749993247
   0.250148498   0.000053578   0.000041937
   0.249655172   0.999999967   0.500000033
   0.249882008   0.499979107   0.000020893
   0.250148498   0.499958063   0.499946422
   0.749851502   0.000053578   0.000041937
   0.750344828   0.999999967   0.500000033
   0.750117992   0.499979107   0.000020893
   0.749851502   0.499958063   0.499946422
   0.000000000   0.250142219   0.999958491
   0.000000000   0.249762284   0.500040922
   0.000000000   0.749825542   0.000067594
   0.000000000   0.750264000   0.499936220
   0.500000000   0.249889682   0.000084858
   0.500000000   0.250270946   0.499904820
   0.500000000   0.750109245   0.000020461
   0.500000000   0.749760869   0.499975618
   0.000000000   0.999959078   0.250237716
   0.000000000   0.000063780   0.749736000
   0.000000000   0.500041509   0.249857781
   0.000000000   0.499932406   0.750174458
   0.500000000   0.000095180   0.249729054
   0.500000000   0.000024382   0.750239131
   0.500000000   0.499915142   0.250110318
   0.500000000   0.499979539   0.749890755
Mg28Ni4O32
   1.00000000
   8.442242379  -0.000000000   0.000000000
  -0.000000000   8.442242111  -0.000022816
   0.000000000  -0.000022816   8.442242111
  Ni  Mg  O
  4  28  32
Direct configuration=     2
   0.000000000   0.000008320   0.000122856
   0.000000000   0.499877144   0.499991680
   0.500000000   0.999678404   0.500321596
   0.000000000   0.250108263   0.249891737
   0.000000000   0.000408851   0.499591149
   0.000000000   0.499718304   0.000281696
   0.500000000   0.999985807   0.000021976
   0.500000000   0.500148987   0.999851013
   0.500000000   0.499978024   0.500014193
   0.000000000   0.249924808   0.749976033
   0.000000000   0.750023967   0.250075192
   0.000000000   0.750033097   0.749966903
   0.500000000   0.249349002   0.250650998
   0.500000000   0.249515129   0.749488235
   0.500000000   0.750511765   0.250484871
   0.500000000   0.750487302   0.749512698
   0.249791845   0.000244577   0.250053401
   0.250099932   0.999920844   0.749835496
   0.249254914   0.499686590   0.250445798
   0.249623685   0.500109700   0.749621136
   0.750208155   0.000244577   0.250053401
   0.749900068   0.999920844   0.749835496
   0.750745086   0.499686590   0.250445798
   0.750376315   0.500109700   0.749621136
   0.249254914   0.249554202   0.000313410
   0.249791845   0.249946599   0.499755423
   0.249623685   0.750378864   0.999890300
   0.250099932   0.750164504   0.500079156
   0.750745086   0.249554202   0.000313410
   0.750208155   0.249946599   0.499755423
   0.750376315   0.750378864   0.999890300
   0.749900068   0.750164504   0.500079156
   0.250349559   0.250058250   0.249941750
   0.249613859   0.249959477   0.750008363
   0.249613859   0.749991637   0.250040523
   0.249808698   0.750050589   0.749949411
   0.749650441   0.250058250   0.249941750
   0.750386141   0.249959477   0.750008363
   0.750386141   0.749991637   0.250040523
   0.750191302   0.750050589   0.749949411
   0.250746344   0.000301051   0.000237155
   0.248132767   0.000001275   0.499998725
   0.249340299   0.499885634   0.000114366
   0.250746344   0.499762845   0.499698949
   0.749253656   0.000301051   0.000237155
   0.751867233   0.000001275   0.499998725
   0.750659701   0.499885634   0.000114366
   0.749253656   0.499762845   0.499698949
   0.000000000   0.250738994   0.999804757
   0.000000000   0.248738092   0.500180384
   0.000000000   0.749080654   0.000367399
   0.000000000   0.751402235   0.499654884
   0.500000000   0.249407828   0.000458467
   0.500000000   0.251444140   0.499479547
   0.500000000   0.750594565   0.000100122
   0.500000000   0.748722011   0.499873406
   0.000000000   0.999819616   0.251261908
   0.000000000   0.000345116   0.748597765
   0.000000000   0.500195243   0.249261006
   0.000000000   0.499632601   0.750919346
   0.500000000   0.000520453   0.248555860
   0.500000000   0.000126594   0.751277989
   0.500000000   0.499541533   0.250592172
   0.500000000   0.499899878   0.749405435
Mg28Ni4O32
   1.00000000
   8.442789056  -0.000000000   0.000000000
  -0.000000000   8.442789340  -0.000029131
   0.000000000  -0.000029131   8.442789340
  Ni  Mg  O
  4  28  32
Direct configuration=     3
   0.000000000   0.000001830   0.000131106
   0.000000000   0.499868894   0.499998170
   0.500000000   0.999654611   0.500345389
   0.000000000   0.250102267   0.249897733
   0.000000000   0.000456894   0.499543106
   0.000000000   0.499687000   0.000313000
   0.500000000   0.000016689   0.000049882
   0.500000000   0.500134142   0.999865858
   0.500000000   0.499950118   0.499983311
   0.000000000   0.249885193   0.749952513
   0.000000000   0.750047487   0.250114807
   0.000000000   0.750067500   0.749932500
   0.500000000   0.249293339   0.250706661
   0.500000000   0.249479564   0.749450570
   0.500000000   0.750549430   0.250520436
   0.500000000   0.750524975   0.749475025
   0.249747556   0.000272896   0.250073415
   0.250063842   0.999937893   0.749799610
   0.249193843   0.499648019   0.250488680
   0.249578565   0.500096926   0.749586859
   0.750252444   0.000272896   0.250073415
   0.749936158   0.999937893   0.749799610
   0.750806157   0.499648019   0.250488680
   0.750421435   0.500096926   0.749586859
   0.249193843   0.249511320   0.000351981
   0.249747556   0.249926585   0.499727104
   0.249578565   0.750413141   0.999903074
   0.250063842   0.750200390   0.500062107
   0.750806157   0.249511320   0.000351981
   0.750252444   0.249926585   0.499727104
   0.750421435   0.750413141   0.999903074
   0.749936158   0.750200390   0.500062107
   0.250332864   0.250047056   0.249952944
   0.249574499   0.249943325   0.749992565
   0.249574499   0.750007435   0.250056675
   0.249782699   0.750068170   0.749931830
   0.749667136   0.250047056   0.249952944
   0.750425501   0.249943325   0.749992565
   0.750425501   0.750007435   0.250056675
   0.750217301   0.750068170   0.749931830
   0.250739586   0.000330852   0.000262472
   0.248012535   0.000003885   0.499996115
   0.249278550   0.499875417   0.000124583
   0.250739586   0.499737528   0.499669148
   0.749260414   0.000330852   0.000262472
   0.751987465   0.000003885   0.499996115
   0.750721450   0.499875417   0.000124583
   0.749260414   0.499737528   0.499669148
   0.000000000   0.250756192   0.999818748
   0.000000000   0.248681491   0.500154377
   0.000000000   0.749045195   0.000393907
   0.000000000   0.751470371   0.499631666
   0.500000000   0.249374973   0.000488793
   0.500000000   0.251514729   0.499442287
   0.500000000   0.750636173   0.000099576
   0.500000000   0.748656752   0.499868137
   0.000000000   0.999845623   0.251318509
   0.000000000   0.000368334   0.748529629
   0.000000000   0.500181252   0.249243808
   0.000000000   0.499606093   0.750954805
   0.500000000   0.000557713   0.248485271
   0.500000000   0.000131863   0.751343248
   0.500000000   0.499511207   0.250625027
   0.500000000   0.499900424   0.749363827
Mg28Ni4O32
   1.00000000
   8.452075106  -0.000000000   0.000000000
  -0.000000000   8.452086541  -0.000138064
   0.000000000  -0.000138064   8.452086541
  Ni  Mg  O
  4  28  32
Direct configuration=     4
   0.000000000   0.999875802   0.000222047
   0.000000000   0.499777953   0.500124198
   0.500000000   0.999385795   0.500614205
   0.000000000   0.249941957   0.250058043
   0.000000000   0.001115849   0.498884151
   0.000000000   0.499275622   0.000724378
   0.500000000   0.000575929   0.000533678
   0.500000000   0.499793060   0.000206940
   0.500000000   0.499466322   0.499424071
   0.000000000   0.249217943   0.749550465
   0.000000000   0.750449535   0.250782057
   0.000000000   0.750664314   0.749335686
   0.500000000   0.248630220   0.251369780
   0.500000000   0.249101371   0.749039605
   0.500000000   0.750960395   0.250898629
   0.500000000   0.750939090   0.749060910
   0.249052568   0.000656715   0.250403422
   0.249362416   0.000281321   0.749249214
   0.248475476   0.499120258   0.251021370
   0.248962029   0.499815480   0.749170103
   0.750947432   0.000656715   0.250403422
   0.750637584   0.000281321   0.749249214
   0.751524524   0.499120258   0.251021370
   0.751037971   0.499815480   0.749170103
   0.248475476   0.248978630   0.000879742
   0.249052568   0.249596578   0.499343285
   0.248962029   0.750829897   0.000184520
   0.249362416   0.750750786   0.499718679
   0.751524524   0.248978630   0.000879742
   0.750947432   0.249596578   0.499343285
   0.751037971   0.750829897   0.000184520
   0.750637584   0.750750786   0.499718679
   0.249846668   0.249803716   0.250196284
   0.249059567   0.249662445   0.749691736
   0.249059567   0.750308264   0.250337555
   0.249392076   0.750371226   0.749628774
   0.750153332   0.249803716   0.250196284
   0.750940433   0.249662445   0.749691736
   0.750940433   0.750308264   0.250337555
   0.750607924   0.750371226   0.749628774
   0.250195755   0.000713017   0.000597433
   0.246837732   0.000061791   0.499938209
   0.248517651   0.499738441   0.000261559
   0.250195755   0.499402567   0.499286983
   0.749804245   0.000713017   0.000597433
   0.753162268   0.000061791   0.499938209
   0.751482349   0.499738441   0.000261559
   0.749804245   0.499402567   0.499286983
   0.000000000   0.250652519   0.000170988
   0.000000000   0.248331513   0.499589934
   0.000000000   0.748912925   0.000687263
   0.000000000   0.751970770   0.499387296
   0.500000000   0.249103033   0.000800428
   0.500000000   0.251984185   0.499047932
   0.500000000   0.751072914   0.000058777
   0.500000000   0.748181500   0.499820166
   0.000000000   0.000410066   0.251668487
   0.000000000   0.000612704   0.748029230
   0.000000000   0.499829012   0.249347481
   0.000000000   0.499312737   0.751087075
   0.500000000   0.000952068   0.248015815
   0.500000000   0.000179834   0.751818500
   0.500000000   0.499199572   0.250896967
   0.500000000   0.499941223   0.748927086
Mg28Ni4O32
   1.00000000
   8.458909169  -0.000000000   0.000000000
  -0.000000000   8.458929790  -0.000219156
   0.000000000  -0.000219156   8.458929790
  Ni  Mg  O
  4  28  32
Direct configuration=     5
   0.000000000   0.999780450   0.000260671
   0.000000000   0.499739329   0.500219550
   0.500000000   0.999281350   0.500718650
   0.000000000   0.249812095   0.250187905
   0.000000000   0.001458109   0.498541891
   0.000000000   0.499085258   0.000914742
   0.500000000   0.000949024   0.000840231
   0.500000000   0.499526122   0.000473878
   0.500000000   0.499159769   0.499050976
   0.000000000   0.248802594   0.749301371
   0.000000000   0.750698629   0.251197406
   0.000000000   0.751049845   0.748950155
   0.500000000   0.248363721   0.251636279
   0.500000000   0.248996548   0.748904797
   0.500000000   0.751095203   0.251003452
   0.500000000   0.751065585   0.748934415
   0.248632135   0.000848468   0.250606176
   0.248862699   0.000526143   0.748940153
   0.248185422   0.498857129   0.251243594
   0.248649511   0.499603842   0.748998885
   0.751367865   0.000848468   0.250606176
   0.751137301   0.000526143   0.748940153
   0.751814578   0.498857129   0.251243594
   0.751350489   0.499603842   0.748998885
   0.248185422   0.248756406   0.001142871
   0.248632135   0.249393824   0.499151532
   0.248649511   0.751001115   0.000396158
   0.248862699   0.751059847   0.499473857
   0.751814578   0.248756406   0.001142871
   0.751367865   0.249393824   0.499151532
   0.751350489   0.751001115   0.000396158
   0.751137301   0.751059847   0.499473857
   0.249417482   0.249605368   0.250394632
   0.248806322   0.249466921   0.749465501
   0.248806322   0.750534499   0.250533079
   0.249144510   0.750583008   0.749416992
   0.750582518   0.249605368   0.250394632
   0.751193678   0.249466921   0.749465501
   0.751193678   0.750534499   0.250533079
   0.750855490   0.750583008   0.749416992
   0.249568001   0.000889248   0.000762782
   0.246591061   0.000120617   0.499879383
   0.248199020   0.499656318   0.000343682
   0.249568001   0.499237218   0.499110752
   0.750431999   0.000889248   0.000762782
   0.753408939   0.000120617   0.499879383
   0.751800980   0.499656318   0.000343682
   0.750431999   0.499237218   0.499110752
   0.000000000   0.250331713   0.000459586
   0.000000000   0.248462934   0.499158018
   0.000000000   0.749123988   0.000796713
   0.000000000   0.751930266   0.499308360
   0.500000000   0.249101333   0.000891664
   0.500000000   0.251815491   0.498936922
   0.500000000   0.751200699   0.000039224
   0.500000000   0.748271510   0.499791020
   0.000000000   0.000841982   0.251537066
   0.000000000   0.000691640   0.748069734
   0.000000000   0.499540414   0.249668287
   0.000000000   0.499203287   0.750876012
   0.500000000   0.001063078   0.248184509
   0.500000000   0.000208980   0.751728490
   0.500000000   0.499108336   0.250898667
   0.500000000   0.499960776   0.748799301
Mg28Ni4O32
   1.00000000
   8.466435411  -0.000000000   0.000000000
  -0.000000000   8.466466100  -0.000308869
   0.000000000  -0.000308869   8.466466100
  Ni  Mg  O
  4  28  32
Direct configuration=     6
   0.000000000   0.999688915   0.000288588
   0.000000000   0.499711412   0.500311085
   0.500000000   0.999241467   0.500758533
   0.000000000   0.249703953   0.250296047
   0.000000000   0.001673640   0.498326360
   0.000000000   0.499003525   0.000996475
   0.500000000   0.001235378   0.001057866
   0.500000000   0.499289602   0.000710398
   0.500000000   0.498942134   0.498764622
   0.000000000   0.248512124   0.749134705
   0.000000000   0.750865295   0.251487876
   0.000000000   0.751338908   0.748661092
   0.500000000   0.248276405   0.251723595
   0.500000000   0.249035232   0.748897071
   0.500000000   0.751102929   0.250964768
   0.500000000   0.751039840   0.748960160
   0.248320842   0.000953156   0.250748762
   0.248445648   0.000721171   0.748754436
   0.248076618   0.498719709   0.251309280
   0.248470036   0.499426828   0.748944184
   0.751679158   0.000953156   0.250748762
   0.751554352   0.000721171   0.748754436
   0.751923382   0.498719709   0.251309280
   0.751529964   0.499426828   0.748944184
   0.248076618   0.248690720   0.001280291
   0.248320842   0.249251238   0.499046844
   0.248470036   0.751055816   0.000573172
   0.248445648   0.751245564   0.499278829
   0.751923382   0.248690720   0.001280291
   0.751679158   0.249251238   0.499046844
   0.751529964   0.751055816   0.000573172
   0.751554352   0.751245564   0.499278829
   0.249000707   0.249405679   0.250594321
   0.248655275   0.249290698   0.749246350
   0.248655275   0.750753650   0.250709302
   0.248919077   0.750779062   0.749220938
   0.750999293   0.249405679   0.250594321
   0.751344725   0.249290698   0.749246350
   0.751344725   0.750753650   0.250709302
   0.751080923   0.750779062   0.749220938
   0.248829078   0.000972447   0.000857086
   0.246806784   0.000204045   0.499795955
   0.248091923   0.499575140   0.000424860
   0.248829078   0.499142914   0.499027553
   0.751170922   0.000972447   0.000857086
   0.753193216   0.000204045   0.499795955
   0.751908077   0.499575140   0.000424860
   0.751170922   0.499142914   0.499027553
   0.000000000   0.249853783   0.000721096
   0.000000000   0.248840159   0.498779176
   0.000000000   0.749549776   0.000836320
   0.000000000   0.751649296   0.499294598
   0.500000000   0.249241601   0.000890098
   0.500000000   0.251245705   0.498969672
   0.500000000   0.751186710   0.000066942
   0.500000000   0.748691530   0.499737090
   0.000000000   0.001220824   0.251159841
   0.000000000   0.000705402   0.748350704
   0.000000000   0.499278904   0.250146217
   0.000000000   0.499163680   0.750450224
   0.500000000   0.001030328   0.248754295
   0.500000000   0.000262910   0.751308470
   0.500000000   0.499109902   0.250758399
   0.500000000   0.499933058   0.748813290
Mg28Ni4O32
   1.00000000
   8.472352264  -0.000000000   0.000000000
  -0.000000000   8.472389738  -0.000379275
   0.000000000  -0.000379275   8.472389738
  Ni  Mg  O
  4  28  32
Direct configuration=     7
   0.000000000   0.999646914   0.000309765
   0.000000000   0.499690235   0.500353086
   0.500000000   0.999256399   0.500743601
   0.000000000   0.249690558   0.250309442
   0.000000000   0.001693825   0.498306175
   0.000000000   0.499054726   0.000945274
   0.500000000   0.001278670   0.001068835
   0.500000000   0.499221344   0.000778656
   0.500000000   0.498931165   0.498721330
   0.000000000   0.248503027   0.749146249
   0.000000000   0.750853751   0.251496973
   0.000000000   0.751379144   0.748620856
   0.500000000   0.248353587   0.251646413
   0.500000000   0.249163494   0.748974747
   0.500000000   0.751025253   0.250836506
   0.500000000   0.750907469   0.749092531
   0.248260986   0.000934283   0.250759030
   0.248340083   0.000751858   0.748785161
   0.248133911   0.498760155   0.251214046
   0.248482852   0.499389937   0.749004206
   0.751739014   0.000934283   0.250759030
   0.751659917   0.000751858   0.748785161
   0.751866089   0.498760155   0.251214046
   0.751517148   0.499389937   0.749004206
   0.248133911   0.248785954   0.001239845
   0.248260986   0.249240970   0.499065717
   0.248482852   0.750995794   0.000610063
   0.248340083   0.751214839   0.499248142
   0.751866089   0.248785954   0.001239845
   0.751739014   0.249240970   0.499065717
   0.751517148   0.750995794   0.000610063
   0.751659917   0.751214839   0.499248142
   0.248846630   0.249308747   0.250691253
   0.248644119   0.249218441   0.749142128
   0.248644119   0.750857872   0.250781559
   0.248799874   0.750868521   0.749131479
   0.751153370   0.249308747   0.250691253
   0.751355881   0.249218441   0.749142128
   0.751355881   0.750857872   0.250781559
   0.751200126   0.750868521   0.749131479
   0.248410827   0.000942652   0.000850754
   0.247225072   0.000280858   0.499719142
   0.248199067   0.499516736   0.000483264
   0.248410827   0.499149246   0.499057348
   0.751589173   0.000942652   0.000850754
   0.752774928   0.000280858   0.499719142
   0.751800933   0.499516736   0.000483264
   0.751589173   0.499149246   0.499057348
   0.000000000   0.249516340   0.000794950
   0.000000000   0.249157759   0.498672066
   0.000000000   0.749904663   0.000823202
   0.000000000   0.751413065   0.499315634
   0.500000000   0.249398331   0.000841346
   0.500000000   0.250649856   0.499091457
   0.500000000   0.751093280   0.000154550
   0.500000000   0.749137846   0.499661221
   0.000000000   0.001327934   0.250842241
   0.000000000   0.000684366   0.748586935
   0.000000000   0.499205050   0.250483660
   0.000000000   0.499176798   0.750095337
   0.500000000   0.000908543   0.249350144
   0.500000000   0.000338779   0.750862154
   0.500000000   0.499158654   0.250601669
   0.500000000   0.499845450   0.748906720
Mg28Ni4O32
   1.00000000
   8.480926572  -0.000000000   0.000000000
  -0.000000000   8.480971781  -0.000480873
   0.000000000  -0.000480873   8.480971781
  Ni  Mg  O
  4  28  32
Direct configuration=     8
   0.000000000   0.999637227   0.000347751
   0.000000000   0.499652249   0.500362773
   0.500000000   0.999305319   0.500694681
   0.000000000   0.249773118   0.250226882
   0.000000000   0.001572483   0.498427517
   0.000000000   0.499234562   0.000765438
   0.500000000   0.001105849   0.000887921
   0.500000000   0.499295479   0.000704521
   0.500000000   0.499112079   0.498894151
   0.000000000   0.248756507   0.749335635
   0.000000000   0.750664365   0.251243493
   0.000000000   0.751202305   0.748797695
   0.500000000   0.248558277   0.251441723
   0.500000000   0.249388866   0.749118893
   0.500000000   0.750881107   0.250611134
   0.500000000   0.750658739   0.749341261
   0.248402181   0.000806201   0.250653842
   0.248498010   0.000631546   0.749023487
   0.248308643   0.498968254   0.250961532
   0.248649913   0.499480394   0.749165991
   0.751597819   0.000806201   0.250653842
   0.751501990   0.000631546   0.749023487
   0.751691357   0.498968254   0.250961532
   0.751350087   0.499480394   0.749165991
   0.248308643   0.249038468   0.001031746
   0.248402181   0.249346158   0.499193799
   0.248649913   0.750834009   0.000519606
   0.248498010   0.750976513   0.499368454
   0.751691357   0.249038468   0.001031746
   0.751597819   0.249346158   0.499193799
   0.751350087   0.750834009   0.000519606
   0.751501990   0.750976513   0.499368454
   0.248912832   0.249280100   0.250719900
   0.248727548   0.249219072   0.749111783
   0.248727548   0.750888217   0.250780928
   0.248719600   0.750890376   0.749109624
   0.751087168   0.249280100   0.250719900
   0.751272452   0.249219072   0.749111783
   0.751272452   0.750888217   0.250780928
   0.751280400   0.750890376   0.749109624
   0.248200192   0.000812656   0.000759747
   0.247854994   0.000386214   0.499613786
   0.248496549   0.499447069   0.000552931
   0.248200192   0.499240253   0.499187344
   0.751799808   0.000812656   0.000759747
   0.752145006   0.000386214   0.499613786
   0.751503451   0.499447069   0.000552931
   0.751799808   0.499240253   0.499187344
   0.000000000   0.249244835   0.000695260
   0.000000000   0.249437709   0.498798838
   0.000000000   0.750249937   0.000783496
   0.000000000   0.751257575   0.499344841
   0.500000000   0.249571195   0.000768050
   0.500000000   0.249898040   0.499310076
   0.500000000   0.750942065   0.000343788
   0.500000000   0.749679885   0.499526422
   0.000000000   0.001201162   0.250562291
   0.000000000   0.000655159   0.748742425
   0.000000000   0.499304740   0.250755165
   0.000000000   0.499216504   0.749750063
   0.500000000   0.000689924   0.250101960
   0.500000000   0.000473578   0.750320115
   0.500000000   0.499231950   0.250428805
   0.500000000   0.499656212   0.749057935
Mg28Ni4O32
   1.00000000
   8.489974089  -0.000000000   0.000000000
  -0.000000000   8.490025311  -0.000587946
   0.000000000  -0.000587946   8.490025311
  Ni  Mg  O
  4  28  32
Direct configuration=     9
   0.000000000   0.999687695   0.000391171
   0.000000000   0.499608829   0.500312305
   0.500000000   0.999371745   0.500628255
   0.000000000   0.249948972   0.250051028
   0.000000000   0.001320433   0.498679567
   0.000000000   0.499490630   0.000509370
   0.500000000   0.000718261   0.000532694
   0.500000000   0.499534406   0.000465594
   0.500000000   0.499467306   0.499281739
   0.000000000   0.249242343   0.749672426
   0.000000000   0.750327574   0.250757657
   0.000000000   0.750816733   0.749183267
   0.500000000   0.248801651   0.251198349
   0.500000000   0.249597051   0.749253129
   0.500000000   0.750746871   0.250402949
   0.500000000   0.750410522   0.749589478
   0.248760272   0.000595868   0.250447257
   0.248956999   0.000361805   0.749415326
   0.248534030   0.499296466   0.250646493
   0.248931002   0.499705635   0.749365957
   0.751239728   0.000595868   0.250447257
   0.751043001   0.000361805   0.749415326
   0.751465970   0.499296466   0.250646493
   0.751068998   0.499705635   0.749365957
   0.248534030   0.249353507   0.000703534
   0.248760272   0.249552743   0.499404132
   0.248931002   0.750634043   0.000294365
   0.248956999   0.750584674   0.499638195
   0.751465970   0.249353507   0.000703534
   0.751239728   0.249552743   0.499404132
   0.751068998   0.750634043   0.000294365
   0.751043001   0.750584674   0.499638195
   0.249281752   0.249387780   0.250612220
   0.248894335   0.249343613   0.749229627
   0.248894335   0.750770373   0.250656387
   0.248762868   0.750779395   0.749220605
   0.750718248   0.249387780   0.250612220
   0.751105665   0.249343613   0.749229627
   0.751105665   0.750770373   0.250656387
   0.751237132   0.750779395   0.749220605
   0.248489718   0.000613382   0.000595817
   0.248351648   0.000463230   0.499536770
   0.248868832   0.499411889   0.000588111
   0.248489718   0.499404183   0.499386618
   0.751510282   0.000613382   0.000595817
   0.751648352   0.000463230   0.499536770
   0.751131168   0.499411889   0.000588111
   0.751510282   0.499404183   0.499386618
   0.000000000   0.249291370   0.000383827
   0.000000000   0.249443466   0.499203710
   0.000000000   0.750306970   0.000730044
   0.000000000   0.751374660   0.499357696
   0.500000000   0.249620462   0.000715665
   0.500000000   0.249450215   0.499527876
   0.500000000   0.750823046   0.000553900
   0.500000000   0.749957947   0.499403613
   0.000000000   0.000796290   0.250556534
   0.000000000   0.000642304   0.748625340
   0.000000000   0.499616173   0.250708630
   0.000000000   0.499269956   0.749693030
   0.500000000   0.000472124   0.250549785
   0.500000000   0.000596387   0.750042053
   0.500000000   0.499284335   0.250379538
   0.500000000   0.499446100   0.749176954
Mg28Ni4O32
   1.00000000
   8.496177925  -0.000000000   0.000000000
  -0.000000000   8.496231696  -0.000662185
   0.000000000  -0.000662185   8.496231696
  Ni  Mg  O
  4  28  32
Direct configuration=     10
   0.000000000   0.999782538   0.000408886
   0.000000000   0.499591114   0.500217462
   0.500000000   0.999437540   0.500562460
   0.000000000   0.250119802   0.249880198
   0.000000000   0.001045138   0.498954862
   0.000000000   0.499694419   0.000305581
   0.500000000   0.000319700   0.000189524
   0.500000000   0.499804127   0.000195873
   0.500000000   0.499810476   0.499680300
   0.000000000   0.249703408   0.749972741
   0.000000000   0.750027259   0.250296592
   0.000000000   0.750429590   0.749570410
   0.500000000   0.248964715   0.251035285
   0.500000000   0.249669095   0.749312238
   0.500000000   0.750687762   0.250330905
   0.500000000   0.750299396   0.749700604
   0.249171971   0.000402040   0.250250224
   0.249483514   0.000090615   0.749747689
   0.248720685   0.499583961   0.250435340
   0.249188285   0.499942811   0.749502096
   0.750828029   0.000402040   0.250250224
   0.750516486   0.000090615   0.749747689
   0.751279315   0.499583961   0.250435340
   0.750811715   0.499942811   0.749502096
   0.248720685   0.249564660   0.000416039
   0.249171971   0.249749776   0.499597960
   0.249188285   0.750497904   0.000057189
   0.249483514   0.750252311   0.499909385
   0.751279315   0.249564660   0.000416039
   0.750828029   0.249749776   0.499597960
   0.750811715   0.750497904   0.000057189
   0.750516486   0.750252311   0.499909385
   0.249763016   0.249601308   0.250398692
   0.249078970   0.249555376   0.749466772
   0.249078970   0.750533228   0.250444624
   0.248954636   0.750559170   0.749440830
   0.750236984   0.249601308   0.250398692
   0.750921030   0.249555376   0.749466772
   0.750921030   0.750533228   0.250444624
   0.751045364   0.750559170   0.749440830
   0.249188356   0.000432728   0.000428507
   0.248468235   0.000453125   0.499546875
   0.249124246   0.499456497   0.000543503
   0.249188356   0.499571493   0.499567272
   0.750811644   0.000432728   0.000428507
   0.751531765   0.000453125   0.499546875
   0.750875754   0.499456497   0.000543503
   0.750811644   0.499571493   0.499567272
   0.000000000   0.249676389   0.000020174
   0.000000000   0.249179074   0.499676191
   0.000000000   0.750002458   0.000666127
   0.000000000   0.751686488   0.499359718
   0.500000000   0.249499032   0.000698199
   0.500000000   0.249598229   0.499640332
   0.500000000   0.750794292   0.000637009
   0.500000000   0.749779441   0.499397738
   0.000000000   0.000323809   0.250820926
   0.000000000   0.000640282   0.748313512
   0.000000000   0.499979826   0.250323611
   0.000000000   0.499333873   0.749997542
   0.500000000   0.000359668   0.250401771
   0.500000000   0.000602262   0.750220559
   0.500000000   0.499301801   0.250500968
   0.500000000   0.499362991   0.749205708
Mg28Ni4O32
   1.00000000
   8.498039723  -0.000000000   0.000000000
  -0.000000000   8.498093316  -0.000686489
   0.000000000  -0.000686489   8.498093316
  Ni  Mg  O
  4  28  32
Direct configuration=     11
   0.000000000   0.999859967   0.000384654
   0.000000000   0.499615346   0.500140033
   0.500000000   0.999488912   0.500511088
   0.000000000   0.250175320   0.249824680