********************************************************************************
*                       GENERAL UTILITY LATTICE PROGRAM                        *
*                                 Julian Gale                                  *
*                       Curtin Institute for Computation                       *
*                    School of Molecular and Life Sciences                     *
*                    Curtin University, Western Australia                      *
********************************************************************************
* Version = 6.4.0 * Last modified =  22nd December 2025                        *
********************************************************************************
*  optimise     - perform optimisation run                                     *
*  conp         - constant pressure calculation                                *
********************************************************************************
*  Ni/Mg substitutions in MgO rocksalt - configuration 24                      *
********************************************************************************


  Job Started  at 16:30.49  5th April      2026                               

  Number of CPUs =     1


  Total number of configurations input =      1

********************************************************************************
*  Input for Configuration =   1                                               *
********************************************************************************

  Formula = Ni4Mg28O32

  Number of irreducible atoms/shells =      96


  Total number atoms/shells =      96

  Dimensionality = 3               :  Bulk   



  Cartesian lattice vectors (Angstroms) :

        8.440000    0.000000    0.000000
        0.000000    8.440000    0.000000
        0.000000    0.000000    8.440000

  Cell parameters (Angstroms/Degrees):

  a =       8.4400    alpha =  90.0000
  b =       8.4400    beta  =  90.0000
  c =       8.4400    gamma =  90.0000

  Initial cell volume =         601.211584 Angs**3

  Temperature of configuration =   0.00     K 

  Pressure of configuration =         0.000 GPa 

  Fractional coordinates of asymmetric unit :

--------------------------------------------------------------------------------
   No.  Atomic       x           y          z         Charge      Occupancy
        Label      (Frac)      (Frac)     (Frac)        (e)         (Frac)  
--------------------------------------------------------------------------------
      1 Ni    c    0.000000    0.000000    0.000000     2.00000    1.000000    
      2 Ni    c    0.000000 *  0.000000 *  0.500000 *   2.00000    1.000000    
      3 Mg    c    0.000000 *  0.500000 *  0.000000 *   2.00000    1.000000    
      4 Mg    c    0.000000 *  0.500000 *  0.500000 *   2.00000    1.000000    
      5 Mg    c    0.500000 *  0.000000 *  0.000000 *   2.00000    1.000000    
      6 Mg    c    0.500000 *  0.000000 *  0.500000 *   2.00000    1.000000    
      7 Mg    c    0.500000 *  0.500000 *  0.000000 *   2.00000    1.000000    
      8 Mg    c    0.500000 *  0.500000 *  0.500000 *   2.00000    1.000000    
      9 Ni    c    0.000000 *  0.250000 *  0.250000 *   2.00000    1.000000    
     10 Mg    c    0.000000 *  0.250000 *  0.750000 *   2.00000    1.000000    
     11 Mg    c    0.000000 *  0.750000 *  0.250000 *   2.00000    1.000000    
     12 Mg    c    0.000000 *  0.750000 *  0.750000 *   2.00000    1.000000    
     13 Mg    c    0.500000 *  0.250000 *  0.250000 *   2.00000    1.000000    
     14 Mg    c    0.500000 *  0.250000 *  0.750000 *   2.00000    1.000000    
     15 Mg    c    0.500000 *  0.750000 *  0.250000 *   2.00000    1.000000    
     16 Mg    c    0.500000 *  0.750000 *  0.750000 *   2.00000    1.000000    
     17 Mg    c    0.250000 *  0.000000 *  0.250000 *   2.00000    1.000000    
     18 Mg    c    0.250000 *  0.000000 *  0.750000 *   2.00000    1.000000    
     19 Mg    c    0.250000 *  0.500000 *  0.250000 *   2.00000    1.000000    
     20 Ni    c    0.250000 *  0.500000 *  0.750000 *   2.00000    1.000000    
     21 Mg    c    0.750000 *  0.000000 *  0.250000 *   2.00000    1.000000    
     22 Mg    c    0.750000 *  0.000000 *  0.750000 *   2.00000    1.000000    
     23 Mg    c    0.750000 *  0.500000 *  0.250000 *   2.00000    1.000000    
     24 Mg    c    0.750000 *  0.500000 *  0.750000 *   2.00000    1.000000    
     25 Mg    c    0.250000 *  0.250000 *  0.000000 *   2.00000    1.000000    
     26 Mg    c    0.250000 *  0.250000 *  0.500000 *   2.00000    1.000000    
     27 Mg    c    0.250000 *  0.750000 *  0.000000 *   2.00000    1.000000    
     28 Mg    c    0.250000 *  0.750000 *  0.500000 *   2.00000    1.000000    
     29 Mg    c    0.750000 *  0.250000 *  0.000000 *   2.00000    1.000000    
     30 Mg    c    0.750000 *  0.250000 *  0.500000 *   2.00000    1.000000    
     31 Mg    c    0.750000 *  0.750000 *  0.000000 *   2.00000    1.000000    
     32 Mg    c    0.750000 *  0.750000 *  0.500000 *   2.00000    1.000000    
     33 O2    c    0.250000 *  0.250000 *  0.250000 *   0.86902    1.000000    
     34 O2    c    0.250000 *  0.250000 *  0.750000 *   0.86902    1.000000    
     35 O2    c    0.250000 *  0.750000 *  0.250000 *   0.86902    1.000000    
     36 O2    c    0.250000 *  0.750000 *  0.750000 *   0.86902    1.000000    
     37 O2    c    0.750000 *  0.250000 *  0.250000 *   0.86902    1.000000    
     38 O2    c    0.750000 *  0.250000 *  0.750000 *   0.86902    1.000000    
     39 O2    c    0.750000 *  0.750000 *  0.250000 *   0.86902    1.000000    
     40 O2    c    0.750000 *  0.750000 *  0.750000 *   0.86902    1.000000    
     41 O2    c    0.250000 *  0.000000 *  0.000000 *   0.86902    1.000000    
     42 O2    c    0.250000 *  0.000000 *  0.500000 *   0.86902    1.000000    
     43 O2    c    0.250000 *  0.500000 *  0.000000 *   0.86902    1.000000    
     44 O2    c    0.250000 *  0.500000 *  0.500000 *   0.86902    1.000000    
     45 O2    c    0.750000 *  0.000000 *  0.000000 *   0.86902    1.000000    
     46 O2    c    0.750000 *  0.000000 *  0.500000 *   0.86902    1.000000    
     47 O2    c    0.750000 *  0.500000 *  0.000000 *   0.86902    1.000000    
     48 O2    c    0.750000 *  0.500000 *  0.500000 *   0.86902    1.000000    
     49 O2    c    0.000000 *  0.250000 *  0.000000 *   0.86902    1.000000    
     50 O2    c    0.000000 *  0.250000 *  0.500000 *   0.86902    1.000000    
     51 O2    c    0.000000 *  0.750000 *  0.000000 *   0.86902    1.000000    
     52 O2    c    0.000000 *  0.750000 *  0.500000 *   0.86902    1.000000    
     53 O2    c    0.500000 *  0.250000 *  0.000000 *   0.86902    1.000000    
     54 O2    c    0.500000 *  0.250000 *  0.500000 *   0.86902    1.000000    
     55 O2    c    0.500000 *  0.750000 *  0.000000 *   0.86902    1.000000    
     56 O2    c    0.500000 *  0.750000 *  0.500000 *   0.86902    1.000000    
     57 O2    c    0.000000 *  0.000000 *  0.250000 *   0.86902    1.000000    
     58 O2    c    0.000000 *  0.000000 *  0.750000 *   0.86902    1.000000    
     59 O2    c    0.000000 *  0.500000 *  0.250000 *   0.86902    1.000000    
     60 O2    c    0.000000 *  0.500000 *  0.750000 *   0.86902    1.000000    
     61 O2    c    0.500000 *  0.000000 *  0.250000 *   0.86902    1.000000    
     62 O2    c    0.500000 *  0.000000 *  0.750000 *   0.86902    1.000000    
     63 O2    c    0.500000 *  0.500000 *  0.250000 *   0.86902    1.000000    
     64 O2    c    0.500000 *  0.500000 *  0.750000 *   0.86902    1.000000    
     65 O2    s    0.250000 *  0.250000 *  0.250000 *  -2.86902    1.000000    
     66 O2    s    0.250000 *  0.250000 *  0.750000 *  -2.86902    1.000000    
     67 O2    s    0.250000 *  0.750000 *  0.250000 *  -2.86902    1.000000    
     68 O2    s    0.250000 *  0.750000 *  0.750000 *  -2.86902    1.000000    
     69 O2    s    0.750000 *  0.250000 *  0.250000 *  -2.86902    1.000000    
     70 O2    s    0.750000 *  0.250000 *  0.750000 *  -2.86902    1.000000    
     71 O2    s    0.750000 *  0.750000 *  0.250000 *  -2.86902    1.000000    
     72 O2    s    0.750000 *  0.750000 *  0.750000 *  -2.86902    1.000000    
     73 O2    s    0.250000 *  0.000000 *  0.000000 *  -2.86902    1.000000    
     74 O2    s    0.250000 *  0.000000 *  0.500000 *  -2.86902    1.000000    
     75 O2    s    0.250000 *  0.500000 *  0.000000 *  -2.86902    1.000000    
     76 O2    s    0.250000 *  0.500000 *  0.500000 *  -2.86902    1.000000    
     77 O2    s    0.750000 *  0.000000 *  0.000000 *  -2.86902    1.000000    
     78 O2    s    0.750000 *  0.000000 *  0.500000 *  -2.86902    1.000000    
     79 O2    s    0.750000 *  0.500000 *  0.000000 *  -2.86902    1.000000    
     80 O2    s    0.750000 *  0.500000 *  0.500000 *  -2.86902    1.000000    
     81 O2    s    0.000000 *  0.250000 *  0.000000 *  -2.86902    1.000000    
     82 O2    s    0.000000 *  0.250000 *  0.500000 *  -2.86902    1.000000    
     83 O2    s    0.000000 *  0.750000 *  0.000000 *  -2.86902    1.000000    
     84 O2    s    0.000000 *  0.750000 *  0.500000 *  -2.86902    1.000000    
     85 O2    s    0.500000 *  0.250000 *  0.000000 *  -2.86902    1.000000    
     86 O2    s    0.500000 *  0.250000 *  0.500000 *  -2.86902    1.000000    
     87 O2    s    0.500000 *  0.750000 *  0.000000 *  -2.86902    1.000000    
     88 O2    s    0.500000 *  0.750000 *  0.500000 *  -2.86902    1.000000    
     89 O2    s    0.000000 *  0.000000 *  0.250000 *  -2.86902    1.000000    
     90 O2    s    0.000000 *  0.000000 *  0.750000 *  -2.86902    1.000000    
     91 O2    s    0.000000 *  0.500000 *  0.250000 *  -2.86902    1.000000    
     92 O2    s    0.000000 *  0.500000 *  0.750000 *  -2.86902    1.000000    
     93 O2    s    0.500000 *  0.000000 *  0.250000 *  -2.86902    1.000000    
     94 O2    s    0.500000 *  0.000000 *  0.750000 *  -2.86902    1.000000    
     95 O2    s    0.500000 *  0.500000 *  0.250000 *  -2.86902    1.000000    
     96 O2    s    0.500000 *  0.500000 *  0.750000 *  -2.86902    1.000000    
--------------------------------------------------------------------------------



********************************************************************************
*  General input information                                                   *
********************************************************************************

  Species output for all configurations : 

--------------------------------------------------------------------------------
  Species    Type    Atomic    Atomic    Charge       Radii (Angs)     Library
                     Number     Mass       (e)     Cova   Ionic  VDW   Symbol
--------------------------------------------------------------------------------
    Ni       Core       28      58.69   2.000000   1.500  0.000  1.810          
    Mg       Core       12      24.31   2.000000   1.100  0.000  1.640          
    O2       Core        8      16.00   0.869020   0.730  0.000  1.360          
    O2       Shell       8       0.00  -2.869020   0.730  0.000  1.360          
--------------------------------------------------------------------------------


  Lattice summation method               =    Ewald          (3-D)
                                         =    Parry          (2-D)
                                         =    Saunders et al (1-D)
  Accuracy factor for lattice sums       =   12.000


  Analytic derivatives to be used

  Time limit = Infinity

  Maximum range for interatomic potentials =    100000.000000 Angstroms

  General interatomic potentials :

--------------------------------------------------------------------------------
Atom  Types   Potential      Parameter       Value         Units   Cutoffs(Ang)
  1     2                                                            Min /  Max 
--------------------------------------------------------------------------------
Mg   c O2   s Buckingham    Buckingham A     946.62700    eV        0.000 10.000
                            Buckingham rho  0.31813000    Ang       
                            Buckingham C     0.0000000    eV*Ang^6  
--------------------------------------------------------------------------------
Ni   c O2   s Buckingham    Buckingham A     1582.5000    eV        0.000 10.000
                            Buckingham rho  0.28820000    Ang       
                            Buckingham C     0.0000000    eV*Ang^6  
--------------------------------------------------------------------------------
O2   s O2   s Buckingham    Buckingham A     22764.000    eV        0.000 12.000
                            Buckingham rho  0.14900000    Ang       
                            Buckingham C     27.879000    eV*Ang^6  
--------------------------------------------------------------------------------
O2   c O2   s Spring (c-s)  Spring k 2       74.920000    eV*Ang^-2 0.000  0.800
                            Spring k 4       0.0000000    eV*Ang^-4 
--------------------------------------------------------------------------------

********************************************************************************
*  Output for configuration   1                                                *
********************************************************************************


  Components of energy : 

--------------------------------------------------------------------------------
  Interatomic potentials     =         228.05016215 eV    
  Monopole - monopole (real) =        -887.65397773 eV    
  Monopole - monopole (recip)=        -638.91332926 eV    
  Monopole - monopole (total)=       -1526.56730699 eV    
--------------------------------------------------------------------------------
  Total lattice energy       =       -1298.51714484 eV    
--------------------------------------------------------------------------------
  Total lattice energy       =         -125287.0548 kJ/(mole unit cells)
--------------------------------------------------------------------------------


  Number of variables =      291

  Maximum number of calculations  =          1000
  Maximum Hessian update interval =            10
  Maximum step size               =   1.000000000
  Maximum parameter tolerance     =   0.000010000
  Maximum function  tolerance     =   0.000010000
  Maximum gradient  tolerance     =   0.001000000
  Maximum gradient  component     =   0.010000000

  Symmetry not applied to optimisation

  Cell parameters to be optimised using strains

  Newton-Raphson optimiser to be used

  BFGS hessian update to be used

  Hessian eigenvalue shifts to be used to ensure all values are positive

  Lower half triangular hessian to be used

  Start of bulk optimisation :

  Cycle:      0 Energy:     -1298.517145  Gnorm:      0.058355  CPU:    0.048
  ** Hessian calculated **
  Cycle:      1 Energy:     -1298.595168  Gnorm:      0.000929  CPU:    0.088
  Cycle:      2 Energy:     -1298.595188  Gnorm:      0.000037  CPU:    0.115


  **** Optimisation achieved ****


  Final energy =   -1298.59518793 eV      
  Final Gnorm  =       0.00000284

  Components of energy : 

--------------------------------------------------------------------------------
  Interatomic potentials     =         223.21782829 eV    
  Monopole - monopole (real) =        -487.90526739 eV    
  Monopole - monopole (recip)=       -1033.90774883 eV    
  Monopole - monopole (total)=       -1521.81301622 eV    
--------------------------------------------------------------------------------
  Total lattice energy       =       -1298.59518793 eV    
--------------------------------------------------------------------------------
  Total lattice energy       =         -125294.5848 kJ/(mole unit cells)
--------------------------------------------------------------------------------

  Final fractional coordinates of atoms :

--------------------------------------------------------------------------------
   No.  Atomic        x           y          z          Radius
        Label       (Frac)      (Frac)     (Frac)       (Angs) 
--------------------------------------------------------------------------------
     1  Ni    c     0.000000    0.000000    0.000000    0.000000
     2  Ni    c     0.000000    0.000000    0.499256    0.000000
     3  Mg    c     0.000380    0.499113    0.999619    0.000000
     4  Mg    c     0.000380    0.499113    0.499637    0.000000
     5  Mg    c     0.499870    0.999652    0.999631    0.000000
     6  Mg    c     0.499870    0.999652    0.499625    0.000000
     7  Mg    c     0.499476    0.499518    0.999246    0.000000
     8  Mg    c     0.499476    0.499518    0.500010    0.000000
     9  Ni    c     0.000001    0.248815    0.249628    0.000000
    10  Mg    c     0.000380    0.249149    0.749628    0.000000
    11  Mg    c     0.000005    0.750462    0.249628    0.000000
    12  Mg    c     0.000378    0.750032    0.749628    0.000000
    13  Mg    c     0.499873    0.249514    0.249628    0.000000
    14  Mg    c     0.499477    0.249903    0.749628    0.000000
    15  Mg    c     0.499873    0.749652    0.249628    0.000000
    16  Mg    c     0.499482    0.749268    0.749628    0.000000
    17  Mg    c     0.248584    0.000046    0.249628    0.000000
    18  Mg    c     0.248982    0.999657    0.749628    0.000000
    19  Mg    c     0.249363    0.499137    0.249628    0.000000
    20  Ni    c     0.249747    0.499526    0.749628    0.000000
    21  Mg    c     0.751305    0.000041    0.249628    0.000000
    22  Mg    c     0.750910    0.999657    0.749628    0.000000
    23  Mg    c     0.750523    0.499139    0.249628    0.000000
    24  Mg    c     0.750140    0.499523    0.749628    0.000000
    25  Mg    c     0.248974    0.249516    0.999631    0.000000
    26  Mg    c     0.248974    0.249516    0.499625    0.000000
    27  Mg    c     0.249359    0.749649    0.999249    0.000000
    28  Mg    c     0.249359    0.749649    0.500007    0.000000
    29  Mg    c     0.750905    0.249138    0.000011    0.000000
    30  Mg    c     0.750905    0.249138    0.499245    0.000000
    31  Mg    c     0.750513    0.750034    0.999629    0.000000
    32  Mg    c     0.750513    0.750034    0.499627    0.000000
    33  O2    c     0.248286    0.249921    0.249628    0.000000
    34  O2    c     0.249565    0.251216    0.749628    0.000000
    35  O2    c     0.249563    0.749213    0.249628    0.000000
    36  O2    c     0.249812    0.747945    0.749628    0.000000
    37  O2    c     0.751604    0.249675    0.249628    0.000000
    38  O2    c     0.750312    0.249941    0.749628    0.000000
    39  O2    c     0.750311    0.749475    0.249628    0.000000
    40  O2    c     0.750049    0.749236    0.749628    0.000000
    41  O2    c     0.247936    0.999595    0.999269    0.000000
    42  O2    c     0.247936    0.999595    0.499987    0.000000
    43  O2    c     0.249463    0.499582    0.997999    0.000000
    44  O2    c     0.249463    0.499582    0.501257    0.000000
    45  O2    c     0.751953    0.999598    0.999523    0.000000
    46  O2    c     0.751953    0.999598    0.499733    0.000000
    47  O2    c     0.750418    0.499585    0.999273    0.000000
    48  O2    c     0.750418    0.499585    0.499983    0.000000
    49  O2    c     0.999950    0.247624    0.001256    0.000000
    50  O2    c     0.999950    0.247624    0.498000    0.000000
    51  O2    c     0.999947    0.751616    0.999982    0.000000
    52  O2    c     0.999947    0.751616    0.499274    0.000000
    53  O2    c     0.499934    0.249122    0.999986    0.000000
    54  O2    c     0.499934    0.249122    0.499270    0.000000
    55  O2    c     0.499931    0.750056    0.999731    0.000000
    56  O2    c     0.499931    0.750056    0.499525    0.000000
    57  O2    c     0.000047    0.001162    0.249628    0.000000
    58  O2    c     0.000286    0.999960    0.749628    0.000000
    59  O2    c     0.000293    0.497891    0.249628    0.000000
    60  O2    c     0.001550    0.499237    0.749628    0.000000
    61  O2    c     0.499830    0.999943    0.249628    0.000000
    62  O2    c     0.499560    0.999696    0.749628    0.000000
    63  O2    c     0.499570    0.499214    0.249628    0.000000
    64  O2    c     0.498279    0.499478    0.749628    0.000000
    65  O2    s     0.248298    0.249959    0.249628    0.000000
    66  O2    s     0.249502    0.251179    0.749628    0.000000
    67  O2    s     0.249499    0.749173    0.249628    0.000000
    68  O2    s     0.249785    0.747981    0.749628    0.000000
    69  O2    s     0.751594    0.249677    0.249628    0.000000
    70  O2    s     0.750377    0.249980    0.749628    0.000000
    71  O2    s     0.750375    0.749472    0.249628    0.000000
    72  O2    s     0.750077    0.749198    0.749628    0.000000
    73  O2    s     0.247902    0.999602    0.999224    0.000000
    74  O2    s     0.247902    0.999602    0.500032    0.000000
    75  O2    s     0.249392    0.499576    0.998031    0.000000
    76  O2    s     0.249392    0.499576    0.501226    0.000000
    77  O2    s     0.751987    0.999605    0.999515    0.000000
    78  O2    s     0.751987    0.999605    0.499741    0.000000
    79  O2    s     0.750492    0.499579    0.999228    0.000000
    80  O2    s     0.750492    0.499579    0.500028    0.000000
    81  O2    s     0.999956    0.247607    0.001225    0.000000
    82  O2    s     0.999956    0.247607    0.498031    0.000000
    83  O2    s     0.999953    0.751641    0.000027    0.000000
    84  O2    s     0.999953    0.751641    0.499229    0.000000
    85  O2    s     0.499927    0.249062    0.000031    0.000000
    86  O2    s     0.499927    0.249062    0.499225    0.000000
    87  O2    s     0.499924    0.750116    0.999739    0.000000
    88  O2    s     0.499924    0.750116    0.499517    0.000000
    89  O2    s     0.000061    0.001130    0.249628    0.000000
    90  O2    s     0.000336    0.000011    0.749628    0.000000
    91  O2    s     0.000343    0.497909    0.249628    0.000000
    92  O2    s     0.001524    0.499187    0.749628    0.000000
    93  O2    s     0.499815    0.999994    0.249628    0.000000
    94  O2    s     0.499507    0.999711    0.749628    0.000000
    95  O2    s     0.499518    0.499163    0.249628    0.000000
    96  O2    s     0.498302    0.499463    0.749628    0.000000
--------------------------------------------------------------------------------

  Final Cartesian lattice vectors (Angstroms) :

        8.467219   -0.000029    0.000000
       -0.000029    8.466929    0.000000
        0.000000    0.000000    8.465326


  Final cell parameters and derivatives :

--------------------------------------------------------------------------------
       a            8.467219 Angstrom     dE/de1(xx)     0.000182 eV/strain
       b            8.466929 Angstrom     dE/de2(yy)     0.000127 eV/strain
       c            8.465326 Angstrom     dE/de3(zz)     0.000280 eV/strain
       alpha       90.000000 Degrees      dE/de4(yz)    -0.000000 eV/strain
       beta        90.000000 Degrees      dE/de5(xz)    -0.000000 eV/strain
       gamma       90.000395 Degrees      dE/de6(xy)    -0.000004 eV/strain
--------------------------------------------------------------------------------

  Primitive cell volume =           606.890564 Angs**3

  Density of cell =      3.905741 g/cm**3

  Non-primitive cell volume =           606.890564 Angs**3


  Final internal derivatives :

--------------------------------------------------------------------------------
   No.  Atomic          a             b             c           Radius
        Label          (eV)          (eV)          (eV)        (eV/Angs)
--------------------------------------------------------------------------------
      1 Ni    c       0.000000      0.000000      0.000000      0.000000
      2 Ni    c      -0.000007      0.000089     -0.000050      0.000000
      3 Mg    c       0.000031      0.000128     -0.000051      0.000000
      4 Mg    c       0.000031      0.000128      0.000051      0.000000
      5 Mg    c       0.000068      0.000012      0.000015      0.000000
      6 Mg    c       0.000068      0.000012     -0.000015      0.000000
      7 Mg    c      -0.000003     -0.000005     -0.000049      0.000000
      8 Mg    c      -0.000003     -0.000005      0.000049      0.000000
      9 Ni    c      -0.000010     -0.000157      0.000000      0.000000
     10 Mg    c       0.000021      0.000004      0.000000      0.000000
     11 Mg    c      -0.000000     -0.000109      0.000000      0.000000
     12 Mg    c       0.000028      0.000004      0.000000      0.000000
     13 Mg    c       0.000027     -0.000025     -0.000000      0.000000
     14 Mg    c      -0.000020      0.000018     -0.000000      0.000000
     15 Mg    c       0.000004      0.000011      0.000000      0.000000
     16 Mg    c      -0.000009     -0.000027      0.000000      0.000000
     17 Mg    c      -0.000124      0.000061      0.000000      0.000000
     18 Mg    c      -0.000064     -0.000028     -0.000000      0.000000
     19 Mg    c      -0.000030     -0.000036     -0.000000      0.000000
     20 Ni    c      -0.000018      0.000005     -0.000000      0.000000
     21 Mg    c       0.000111      0.000059      0.000000      0.000000
     22 Mg    c       0.000029     -0.000001      0.000000      0.000000
     23 Mg    c       0.000005     -0.000024     -0.000000      0.000000
     24 Mg    c      -0.000106     -0.000006     -0.000000      0.000000
     25 Mg    c      -0.000074     -0.000016      0.000018      0.000000
     26 Mg    c      -0.000074     -0.000016     -0.000018      0.000000
     27 Mg    c      -0.000023      0.000011     -0.000049      0.000000
     28 Mg    c      -0.000023      0.000011      0.000049      0.000000
     29 Mg    c       0.000065     -0.000043      0.000056      0.000000
     30 Mg    c       0.000065     -0.000043     -0.000056      0.000000
     31 Mg    c       0.000017      0.000029     -0.000006      0.000000
     32 Mg    c       0.000017      0.000029      0.000006      0.000000
     33 O2    c      -0.000021     -0.000010     -0.000000      0.000000
     34 O2    c      -0.000012      0.000046     -0.000000      0.000000
     35 O2    c       0.000004     -0.000007      0.000000      0.000000
     36 O2    c      -0.000008     -0.000041      0.000000      0.000000
     37 O2    c       0.000016     -0.000014      0.000000      0.000000
     38 O2    c       0.000020      0.000014      0.000000      0.000000
     39 O2    c      -0.000002      0.000000      0.000000      0.000000
     40 O2    c       0.000001     -0.000014      0.000000      0.000000
     41 O2    c      -0.000030      0.000003     -0.000005      0.000000
     42 O2    c      -0.000030      0.000003      0.000005      0.000000
     43 O2    c       0.000001     -0.000002     -0.000057      0.000000
     44 O2    c       0.000001     -0.000002      0.000057      0.000000
     45 O2    c       0.000009      0.000004      0.000002      0.000000
     46 O2    c       0.000009      0.000004     -0.000002      0.000000
     47 O2    c       0.000004      0.000003     -0.000019      0.000000
     48 O2    c       0.000004      0.000003      0.000019      0.000000
     49 O2    c      -0.000001     -0.000072      0.000037      0.000000
     50 O2    c      -0.000001     -0.000072     -0.000037      0.000000
     51 O2    c      -0.000002     -0.000011      0.000006      0.000000
     52 O2    c      -0.000002     -0.000011     -0.000006      0.000000
     53 O2    c       0.000005     -0.000018      0.000021      0.000000
     54 O2    c       0.000005     -0.000018     -0.000021      0.000000
     55 O2    c       0.000003      0.000018     -0.000000      0.000000
     56 O2    c       0.000003      0.000018      0.000000      0.000000
     57 O2    c      -0.000007      0.000080      0.000000      0.000000
     58 O2    c      -0.000002     -0.000012      0.000000      0.000000
     59 O2    c       0.000013      0.000054      0.000000      0.000000
     60 O2    c       0.000049     -0.000018      0.000000      0.000000
     61 O2    c       0.000002      0.000025      0.000000      0.000000
     62 O2    c       0.000006      0.000004      0.000000      0.000000
     63 O2    c      -0.000009     -0.000014      0.000000      0.000000
     64 O2    c       0.000007     -0.000001      0.000000      0.000000
     65 O2    s       0.000089      0.000073      0.000000      0.000000
     66 O2    s      -0.000035     -0.000155      0.000000      0.000000
     67 O2    s      -0.000041     -0.000027     -0.000000      0.000000
     68 O2    s      -0.000014      0.000164     -0.000000      0.000000
     69 O2    s      -0.000092      0.000065     -0.000000      0.000000
     70 O2    s      -0.000013     -0.000028     -0.000000      0.000000
     71 O2    s       0.000020     -0.000028     -0.000000      0.000000
     72 O2    s      -0.000014      0.000026     -0.000000      0.000000
     73 O2    s       0.000065     -0.000023     -0.000057      0.000000
     74 O2    s       0.000065     -0.000023      0.000057      0.000000
     75 O2    s      -0.000029     -0.000001      0.000135      0.000000
     76 O2    s      -0.000029     -0.000001     -0.000135      0.000000
     77 O2    s      -0.000095     -0.000012     -0.000032      0.000000
     78 O2    s      -0.000095     -0.000012      0.000032      0.000000
     79 O2    s      -0.000021     -0.000000      0.000014      0.000000
     80 O2    s      -0.000021     -0.000000     -0.000014      0.000000
     81 O2    s       0.000032      0.000002     -0.000053      0.000000
     82 O2    s       0.000032      0.000002      0.000053      0.000000
     83 O2    s       0.000028     -0.000162      0.000021      0.000000
     84 O2    s       0.000028     -0.000162     -0.000021      0.000000
     85 O2    s      -0.000002      0.000016     -0.000016      0.000000
     86 O2    s      -0.000002      0.000016      0.000016      0.000000
     87 O2    s      -0.000010      0.000006     -0.000006      0.000000
     88 O2    s      -0.000010      0.000006      0.000006      0.000000
     89 O2    s       0.000009     -0.000039     -0.000000      0.000000
     90 O2    s      -0.000002      0.000043     -0.000000      0.000000
     91 O2    s      -0.000003      0.000157     -0.000000      0.000000
     92 O2    s      -0.000141      0.000052     -0.000000      0.000000
     93 O2    s       0.000036     -0.000039     -0.000000      0.000000
     94 O2    s       0.000029      0.000000     -0.000000      0.000000
     95 O2    s       0.000029     -0.000009     -0.000000      0.000000
     96 O2    s       0.000183     -0.000012      0.000000      0.000000
--------------------------------------------------------------------------------
  Maximum abs         0.000183      0.000164      0.000135      0.000000
--------------------------------------------------------------------------------


  Time to end of optimisation =       0.1423 seconds


  Peak dynamic memory used =       3.97 MB 


  Timing analysis for GULP :

--------------------------------------------------------------------------------
  Task / Subroutine                                          Time (Seconds)
--------------------------------------------------------------------------------
  Calculation of reciprocal space energy and derivatives          0.0108
  Calculation of real space energy and derivatives                0.1201
  Calculation and manipulation of Hessian matrix                  0.0038
  Calculation of matrix inversion                                 0.0032
--------------------------------------------------------------------------------
  Total CPU time                                                  0.1423
--------------------------------------------------------------------------------


  Job Finished at 16:30.49  5th April      2026                               

