Mg28Ni4O32
   1.00000000
   8.440351811  -0.000000000   0.000000000
  -0.000000000   8.440346276  -0.000000000
   0.000000000  -0.000000000   8.440338163
  Ni  Mg  O
  4  28  32
Direct configuration=     1
   0.000016961   0.000100497   0.000000000
   0.000016961   0.999899503   0.500000000
   0.249979543   0.249963379   0.000000000
   0.249979543   0.750036621   0.500000000
   0.000066632   0.499911453   0.000000000
   0.000066632   0.500088547   0.500000000
   0.499938058   0.000072466   0.000000000
   0.499938058   0.999927534   0.500000000
   0.499926986   0.499917757   0.000000000
   0.499926986   0.500082243   0.500000000
   0.000075832   0.249793216   0.249893843
   0.000075832   0.249793216   0.750106157
   0.000075832   0.750206784   0.250106157
   0.000075832   0.750206784   0.749893843
   0.499930784   0.250024970   0.249943300
   0.499930784   0.250024970   0.750056700
   0.499930784   0.749975030   0.250056700
   0.499930784   0.749975030   0.749943300
   0.249803147   0.000000000   0.250000000
   0.249803147   0.000000000   0.750000000
   0.250023041   0.500000000   0.250000000
   0.250023041   0.500000000   0.750000000
   0.750202950   0.000000000   0.250000000
   0.750202950   0.000000000   0.750000000
   0.749970902   0.500000000   0.250000000
   0.749970902   0.500000000   0.750000000
   0.249886608   0.249881493   0.500000000
   0.249886608   0.750118507   0.000000000
   0.750095074   0.249908695   0.000000000
   0.750079517   0.249909512   0.500000000
   0.750079517   0.750090488   0.000000000
   0.750095074   0.750091305   0.500000000
   0.249972582   0.249996309   0.250219313
   0.249972582   0.249996309   0.749780687
   0.249972582   0.750003691   0.249780687
   0.249972582   0.750003691   0.750219313
   0.749996532   0.249990472   0.249948765
   0.749996532   0.249990472   0.750051235
   0.749996532   0.750009528   0.250051235
   0.749996532   0.750009528   0.749948765
   0.250083289   0.999791617   0.000000000
   0.250083289   0.000208383   0.500000000
   0.249931079   0.500232602   0.000000000
   0.249931079   0.499767398   0.500000000
   0.749865531   0.000044261   0.000000000
   0.749865531   0.999955739   0.500000000
   0.750058800   0.499943698   0.000000000
   0.750058800   0.500056302   0.500000000
   0.999921151   0.250089479   0.000000000
   0.000121013   0.250135407   0.500000000
   0.000121013   0.749864593   0.000000000
   0.999921151   0.749910521   0.500000000
   0.500121749   0.249936359   0.000000000
   0.499895861   0.249943749   0.500000000
   0.499895861   0.750056251   0.000000000
   0.500121749   0.750063641   0.500000000
   0.000050025   0.000000000   0.250000000
   0.000050025   0.000000000   0.750000000
   0.000021646   0.500000000   0.250000000
   0.000021646   0.500000000   0.750000000
   0.500009474   0.000000000   0.250000000
   0.500009474   0.000000000   0.750000000
   0.499979503   0.500000000   0.250000000
   0.499979503   0.500000000   0.750000000
Mg28Ni4O32
   1.00000000
   8.442373932  -0.000000000   0.000000000
  -0.000000000   8.442337199  -0.000000000
   0.000000000  -0.000000000   8.442281982
  Ni  Mg  O
  4  28  32
Direct configuration=     2
   0.000105439   0.000557925   0.000000000
   0.000105439   0.999442075   0.500000000
   0.249897171   0.249795475   0.000000000
   0.249897171   0.750204525   0.500000000
   0.000404654   0.499530762   0.000000000
   0.000404654   0.500469238   0.500000000
   0.499624011   0.000387597   0.000000000
   0.499624011   0.999612403   0.500000000
   0.499559634   0.499561783   0.000000000
   0.499559634   0.500438217   0.500000000
   0.000465612   0.248831760   0.249405773
   0.000465612   0.248831760   0.750594227
   0.000465612   0.751168240   0.250594227
   0.000465612   0.751168240   0.749405773
   0.499579815   0.250089308   0.249717642
   0.499579815   0.250089308   0.750282358
   0.499579815   0.749910692   0.250282358
   0.499579815   0.749910692   0.749717642
   0.248891012   0.000000000   0.250000000
   0.248891012   0.000000000   0.750000000
   0.250070504   0.500000000   0.250000000
   0.250070504   0.500000000   0.750000000
   0.751146102   0.000000000   0.250000000
   0.751146102   0.000000000   0.750000000
   0.749888333   0.500000000   0.250000000
   0.749888333   0.500000000   0.750000000
   0.249310347   0.249293484   0.500000000
   0.249310347   0.750706516   0.000000000
   0.750552549   0.249462737   0.000000000
   0.750475360   0.249476036   0.500000000
   0.750475360   0.750523964   0.000000000
   0.750552549   0.750537263   0.500000000
   0.249811874   0.249945157   0.251210365
   0.249811874   0.249945157   0.748789635
   0.249811874   0.750054843   0.248789635
   0.249811874   0.750054843   0.751210365
   0.750018970   0.249905277   0.249705901
   0.750018970   0.249905277   0.750294099
   0.750018970   0.750094723   0.250294099
   0.750018970   0.750094723   0.749705901
   0.250424050   0.998850373   0.000000000
   0.250424050   0.001149627   0.500000000
   0.249624030   0.501286914   0.000000000
   0.249624030   0.498713086   0.500000000
   0.749281144   0.000252631   0.000000000
   0.749281144   0.999747369   0.500000000
   0.750316251   0.499671864   0.000000000
   0.750316251   0.500328136   0.500000000
   0.999606143   0.250463808   0.000000000
   0.000664897   0.250712746   0.500000000
   0.000664897   0.749287254   0.000000000
   0.999606143   0.749536192   0.500000000
   0.500642436   0.249651490   0.000000000
   0.499424969   0.249696663   0.500000000
   0.499424969   0.750303337   0.000000000
   0.500642436   0.750348510   0.500000000
   0.000311971   0.000000000   0.250000000
   0.000311971   0.000000000   0.750000000
   0.000145898   0.500000000   0.250000000
   0.000145898   0.500000000   0.750000000
   0.500030322   0.000000000   0.250000000
   0.500030322   0.000000000   0.750000000
   0.499850232   0.500000000   0.250000000
   0.499850232   0.500000000   0.750000000
Mg28Ni4O32
   1.00000000
   8.442976133  -0.000000000   0.000000000
  -0.000000000   8.442930909   0.000000000
   0.000000000   0.000000000   8.442860639
  Ni  Mg  O
  4  28  32
Direct configuration=     3
   0.000123870   0.000596136   0.000000000
   0.000123870   0.999403864   0.500000000
   0.249901150   0.249779610   0.000000000
   0.249901150   0.750220390   0.500000000
   0.000462229   0.499522448   0.000000000
   0.000462229   0.500477552   0.500000000
   0.499570599   0.000399281   0.000000000
   0.499570599   0.999600719   0.500000000
   0.499498080   0.499550034   0.000000000
   0.499498080   0.500449966   0.500000000
   0.000536963   0.248737139   0.249361942
   0.000536963   0.248737139   0.750638058
   0.000536963   0.751262861   0.250638058
   0.000536963   0.751262861   0.749361942
   0.499519528   0.250050604   0.249729834
   0.499519528   0.250050604   0.750270166
   0.499519528   0.749949396   0.250270166
   0.499519528   0.749949396   0.749729834
   0.248805353   0.000000000   0.250000000
   0.248805353   0.000000000   0.750000000
   0.250022814   0.500000000   0.250000000
   0.250022814   0.500000000   0.750000000
   0.751238856   0.000000000   0.250000000
   0.751238856   0.000000000   0.750000000
   0.749925852   0.500000000   0.250000000
   0.749925852   0.500000000   0.750000000
   0.249209464   0.249204830   0.500000000
   0.249209464   0.750795170   0.000000000
   0.750608829   0.249400541   0.000000000
   0.750539850   0.249421781   0.500000000
   0.750539850   0.750578219   0.000000000
   0.750608829   0.750599459   0.500000000
   0.249765761   0.249908031   0.251280045
   0.249765761   0.249908031   0.748719955
   0.249765761   0.750091969   0.248719955
   0.249765761   0.750091969   0.751280045
   0.750057980   0.249858871   0.249679217
   0.750057980   0.249858871   0.750320783
   0.750057980   0.750141129   0.250320783
   0.750057980   0.750141129   0.749679217
   0.250414299   0.998787970   0.000000000
   0.250414299   0.001212030   0.500000000
   0.249603933   0.501366561   0.000000000
   0.249603933   0.498633439   0.500000000
   0.749260707   0.000273695   0.000000000
   0.749260707   0.999726305   0.500000000
   0.750330768   0.499636859   0.000000000
   0.750330768   0.500363141   0.500000000
   0.999626869   0.250462169   0.000000000
   0.000697509   0.250722402   0.500000000
   0.000697509   0.749277598   0.000000000
   0.999626869   0.749537831   0.500000000
   0.500649225   0.249631555   0.000000000
   0.499389983   0.249681812   0.500000000
   0.499389983   0.750318188   0.000000000
   0.500649225   0.750368445   0.500000000
   0.000364038   0.000000000   0.250000000
   0.000364038   0.000000000   0.750000000
   0.000180720   0.500000000   0.250000000
   0.000180720   0.500000000   0.750000000
   0.500009041   0.000000000   0.250000000
   0.500009041   0.000000000   0.750000000
   0.499805499   0.500000000   0.250000000
   0.499805499   0.500000000   0.750000000
Mg28Ni4O32
   1.00000000
   8.451091511   0.000000000   0.000000000
   0.000000000   8.450934533   0.000000000
   0.000000000   0.000000000   8.450658129
  Ni  Mg  O
  4  28  32
Direct configuration=     4
   0.000341349   0.000874100   0.000000000
   0.000341349   0.999125900   0.500000000
   0.250024236   0.249652406   0.000000000
   0.250024236   0.750347594   0.500000000
   0.001088667   0.499644256   0.000000000
   0.001088667   0.500355744   0.500000000
   0.498987417   0.000378247   0.000000000
   0.498987417   0.999621753   0.500000000
   0.498826579   0.499603010   1.000000000
   0.498826579   0.500396990   0.500000000
   0.001335660   0.247950474   0.249018656
   0.001335660   0.247950474   0.750981344
   0.001335660   0.752049526   0.250981344
   0.001335660   0.752049526   0.749018656
   0.498859894   0.249452420   0.250054668
   0.498859894   0.249452420   0.749945332
   0.498859894   0.750547580   0.249945332
   0.498859894   0.750547580   0.750054668
   0.248124668   1.000000000   0.250000000
   0.248124668   1.000000000   0.750000000
   0.249303496   0.500000000   0.250000000
   0.249303496   0.500000000   0.750000000
   0.752007976   1.000000000   0.250000000
   0.752007976   1.000000000   0.750000000
   0.750517788   0.500000000   0.250000000
   0.750517788   0.500000000   0.750000000
   0.248081627   0.248272774   0.500000000
   0.248081627   0.751727226   1.000000000
   0.751134534   0.248773419   0.000000000
   0.751245292   0.248901372   0.500000000
   0.751245292   0.751098628   1.000000000
   0.751134534   0.751226581   0.500000000
   0.249183932   0.249383254   0.251671165
   0.249183932   0.249383254   0.748328835
   0.249183932   0.750616746   0.248328835
   0.249183932   0.750616746   0.751671165
   0.750633309   0.249221535   0.249448815
   0.750633309   0.249221535   0.750551185
   0.750633309   0.750778465   0.250551185
   0.750633309   0.750778465   0.749448815
   0.250045824   0.998484933   0.000000000
   0.250045824   0.001515067   0.500000000
   0.249477469   0.501873054   0.000000000
   0.249477469   0.498126946   0.500000000
   0.749337515   0.000443875   0.000000000
   0.749337515   0.999556125   0.500000000
   0.750406947   0.499301791   0.000000000
   0.750406947   0.500698209   0.500000000
   0.000170039   0.250199631   0.000000000
   0.000822777   0.250487526   0.500000000
   0.000822777   0.749512474   1.000000000
   0.000170039   0.749800369   0.500000000
   0.500386258   0.249498758   0.000000000
   0.499167463   0.249592502   0.500000000
   0.499167463   0.750407498   0.000000000
   0.500386258   0.750501242   0.500000000
   0.000970323   1.000000000   0.250000000
   0.000970323   1.000000000   0.750000000
   0.000625234   0.500000000   0.250000000
   0.000625234   0.500000000   0.750000000
   0.499663243   1.000000000   0.250000000
   0.499663243   1.000000000   0.750000000
   0.499217688   0.500000000   0.250000000
   0.499217688   0.500000000   0.750000000
Mg28Ni4O32
   1.00000000
   8.456724881   0.000000000   0.000000000
   0.000000000   8.456491968   0.000000000
   0.000000000   0.000000000   8.456068726
  Ni  Mg  O
  4  28  32
Direct configuration=     5
   0.000457059   0.000910860   0.000000000
   0.000457059   0.999089140   0.500000000
   0.250152773   0.249625269   0.000000000
   0.250152773   0.750374731   0.500000000
   0.001371380   0.499854966   0.000000000
   0.001371380   0.500145034   0.500000000
   0.498718636   0.000271703   0.000000000
   0.498718636   0.999728297   0.500000000
   0.498513925   0.499757865   1.000000000
   0.498513925   0.500242135   0.500000000
   0.001713416   0.247754749   0.248944593
   0.001713416   0.247754749   0.751055407
   0.001713416   0.752245251   0.251055407
   0.001713416   0.752245251   0.748944593
   0.498554451   0.249062101   0.250345708
   0.498554451   0.249062101   0.749654292
   0.498554451   0.750937899   0.249654292
   0.498554451   0.750937899   0.750345708
   0.247993044   1.000000000   0.250000000
   0.247993044   1.000000000   0.750000000
   0.248843680   0.500000000   0.250000000
   0.248843680   0.500000000   0.750000000
   0.752197380   1.000000000   0.250000000
   0.752197380   1.000000000   0.750000000
   0.750912802   0.500000000   0.250000000
   0.750912802   0.500000000   0.750000000
   0.247526419   0.247863147   0.500000000
   0.247526419   0.752136853   1.000000000
   0.751304742   0.248524722   0.000000000
   0.751585115   0.248711610   0.500000000
   0.751585115   0.751288390   1.000000000
   0.751304742   0.751475278   0.500000000
   0.248856359   0.249042551   0.251585552
   0.248856359   0.249042551   0.748414448
   0.248856359   0.750957449   0.248414448
   0.248856359   0.750957449   0.751585552
   0.751026559   0.248823731   0.249393115
   0.751026559   0.248823731   0.750606885
   0.751026559   0.751176269   0.250606885
   0.751026559   0.751176269   0.749393115
   0.249677901   0.998635381   0.000000000
   0.249677901   0.001364619   0.500000000
   0.249454571   0.501856360   0.000000000
   0.249454571   0.498143640   0.500000000
   0.749595902   0.000472765   0.000000000
   0.749595902   0.999527235   0.500000000
   0.750413429   0.499186871   0.000000000
   0.750413429   0.500813129   0.500000000
   0.000693276   0.249903363   0.000000000
   0.000705136   0.250121572   0.500000000
   0.000705136   0.749878428   1.000000000
   0.000693276   0.750096637   0.500000000
   0.499984831   0.249474507   1.000000000
   0.499169578   0.249570291   0.500000000
   0.499169578   0.750429709   1.000000000
   0.499984831   0.750525493   0.500000000
   0.001283154   1.000000000   0.250000000
   0.001283154   1.000000000   0.750000000
   0.000887409   0.500000000   0.250000000
   0.000887409   0.500000000   0.750000000
   0.499397603   1.000000000   0.250000000
   0.499397603   1.000000000   0.750000000
   0.498858684   0.500000000   0.250000000
   0.498858684   0.500000000   0.750000000
Mg28Ni4O32
   1.00000000
   8.463038901   0.000000000   0.000000000
   0.000000000   8.462721317   0.000000000
   0.000000000   0.000000000   8.462128264
  Ni  Mg  O
  4  28  32
Direct configuration=     6
   0.000539005   0.000847864   0.000000000
   0.000539005   0.999152136   0.500000000
   0.250315117   0.249642398   0.000000000
   0.250315117   0.750357602   0.500000000
   0.001501128   0.500129052   0.000000000
   0.001501128   0.499870948   0.500000000
   0.498581085   0.000131683   0.000000000
   0.498581085   0.999868317   0.500000000
   0.498345568   0.499976190   0.000000000
   0.498345568   0.500023810   0.500000000
   0.001906702   0.247816526   0.248974510
   0.001906702   0.247816526   0.751025490
   0.001906702   0.752183474   0.251025490
   0.001906702   0.752183474   0.748974510
   0.498397208   0.248760578   0.250648936
   0.498397208   0.248760578   0.749351064
   0.498397208   0.751239422   0.249351064
   0.498397208   0.751239422   0.750648936
   0.248117042   1.000000000   0.250000000
   0.248117042   1.000000000   0.750000000
   0.248498731   0.500000000   0.250000000
   0.248498731   0.500000000   0.750000000
   0.752132592   1.000000000   0.250000000
   0.752132592   1.000000000   0.750000000
   0.751231240   0.500000000   0.250000000
   0.751231240   0.500000000   0.750000000
   0.247180271   0.247663543   0.500000000
   0.247180271   0.752336457   1.000000000
   0.751303288   0.248446195   0.000000000
   0.751793580   0.248665120   0.500000000
   0.751793580   0.751334880   1.000000000
   0.751303288   0.751553805   0.500000000
   0.248626659   0.248748024   0.251262863
   0.248626659   0.248748024   0.748737137
   0.248626659   0.751251976   0.248737137
   0.248626659   0.751251976   0.751262863
   0.751390521   0.248500296   0.249426104
   0.751390521   0.248500296   0.750573896
   0.751390521   0.751499704   0.250573896
   0.751390521   0.751499704   0.749426104
   0.249267229   0.999044845   0.000000000
   0.249267229   0.000955155   0.500000000
   0.249430903   0.501602100   0.000000000
   0.249430903   0.498397900   0.500000000
   0.749974437   0.000428769   0.000000000
   0.749974437   0.999571231   0.500000000
   0.750431583   0.499178657   0.000000000
   0.750431583   0.500821343   0.500000000
   0.001317244   0.249569659   0.000000000
   0.000448049   0.249641760   0.500000000
   0.000448049   0.750358240   1.000000000
   0.001317244   0.750430341   0.500000000
   0.499427644   0.249466155   1.000000000
   0.499267154   0.249526959   0.500000000
   0.499267154   0.750473041   1.000000000
   0.499427644   0.750533845   0.500000000
   0.001485340   1.000000000   0.250000000
   0.001485340   1.000000000   0.750000000
   0.001094707   0.500000000   0.250000000
   0.001094707   0.500000000   0.750000000
   0.499114697   1.000000000   0.250000000
   0.499114697   1.000000000   0.750000000
   0.498560186   0.500000000   0.250000000
   0.498560186   0.500000000   0.750000000
Mg28Ni4O32
   1.00000000
   8.468697511   0.000000000   0.000000000
   0.000000000   8.468303260   0.000000000
   0.000000000   0.000000000   8.467552473
  Ni  Mg  O
  4  28  32
Direct configuration=     7
   0.000564362   0.000767166   0.000000000
   0.000564362   0.999232834   0.500000000
   0.250439753   0.249679254   0.000000000
   0.250439753   0.750320746   0.500000000
   0.001440968   0.500310296   1.000000000
   0.001440968   0.499689704   0.500000000
   0.498610049   0.000062857   0.000000000
   0.498610049   0.999937143   0.500000000
   0.498361940   0.500129498   0.000000000
   0.498361940   0.499870502   0.500000000
   0.001853533   0.248015855   0.249036333
   0.001853533   0.248015855   0.750963667
   0.001853533   0.751984145   0.250963667
   0.001853533   0.751984145   0.749036333
   0.498431920   0.248704905   0.250809177
   0.498431920   0.248704905   0.749190823
   0.498431920   0.751295095   0.249190823
   0.498431920   0.751295095   0.750809177
   0.248358843   1.000000000   0.250000000
   0.248358843   1.000000000   0.750000000
   0.248448924   0.500000000   0.250000000
   0.248448924   0.500000000   0.750000000
   0.751930127   1.000000000   0.250000000
   0.751930127   1.000000000   0.750000000
   0.751312365   0.500000000   0.250000000
   0.751312365   0.500000000   0.750000000
   0.247134595   0.247703546   0.500000000
   0.247134595   0.752296454   0.000000000
   0.751162493   0.248540142   1.000000000
   0.751821249   0.248742689   0.500000000
   0.751821249   0.751257311   0.000000000
   0.751162493   0.751459858   0.500000000
   0.248592069   0.248625687   0.250942650
   0.248592069   0.248625687   0.749057350
   0.248592069   0.751374313   0.249057350
   0.248592069   0.751374313   0.750942650
   0.751570326   0.248393641   0.249512444
   0.751570326   0.248393641   0.750487556
   0.751570326   0.751606359   0.250487556
   0.751570326   0.751606359   0.749512444
   0.249024062   0.999458433   0.000000000
   0.249024062   0.000541567   0.500000000
   0.249358384   0.501336232   0.000000000
   0.249358384   0.498663768   0.500000000
   0.750253563   0.000352908   0.000000000
   0.750253563   0.999647092   0.500000000
   0.750501332   0.499262315   0.000000000
   0.750501332   0.500737685   0.500000000
   0.001771861   0.249389326   0.000000000
   0.000212580   0.249304115   0.500000000
   0.000212580   0.750695885   0.000000000
   0.001771861   0.750610674   0.500000000
   0.498984704   0.249434191   1.000000000
   0.499366466   0.249426591   0.500000000
   0.499366466   0.750573409   0.000000000
   0.498984704   0.750565809   0.500000000
   0.001508442   1.000000000   0.250000000
   0.001508442   1.000000000   0.750000000
   0.001166529   0.500000000   0.250000000
   0.001166529   0.500000000   0.750000000
   0.498929414   1.000000000   0.250000000
   0.498929414   1.000000000   0.750000000
   0.498441300   0.500000000   0.250000000
   0.498441300   0.500000000   0.750000000
Mg28Ni4O32
   1.00000000
   8.477957654   0.000000000   0.000000000
   0.000000000   8.477436075   0.000000000
   0.000000000   0.000000000   8.476420892
  Ni  Mg  O
  4  28  32
Direct configuration=     8
   0.000559767   0.000689436   1.000000000
   0.000559767   0.999310564   0.500000000
   0.250570273   0.249734299   0.000000000
   0.250570273   0.750265701   0.500000000
   0.001182833   0.500439152   1.000000000
   0.001182833   0.499560848   0.500000000
   0.498795845   0.000078252   0.000000000
   0.498795845   0.999921748   0.500000000
   0.498537396   0.500252527   0.000000000
   0.498537396   0.499747473   0.500000000
   0.001552903   0.248354831   0.249101054
   0.001552903   0.248354831   0.750898946
   0.001552903   0.751645169   0.250898946
   0.001552903   0.751645169   0.749101054
   0.498653711   0.248894650   0.250870819
   0.498653711   0.248894650   0.749129181
   0.498653711   0.751105350   0.249129181
   0.498653711   0.751105350   0.750870819
   0.248743585   1.000000000   0.250000000
   0.248743585   1.000000000   0.750000000
   0.248697872   0.500000000   0.250000000
   0.248697872   0.500000000   0.750000000
   0.751581218   1.000000000   0.250000000
   0.751581218   1.000000000   0.750000000
   0.751170058   0.500000000   0.250000000
   0.751170058   0.500000000   0.750000000
   0.247319757   0.247948283   0.500000000
   0.247319757   0.752051717   0.000000000
   0.750853217   0.248818570   1.000000000
   0.751716128   0.248937064   0.500000000
   0.751716128   0.751062936   0.000000000
   0.750853217   0.751181430   0.500000000
   0.248743676   0.248633233   0.250588757
   0.248743676   0.248633233   0.749411243
   0.248743676   0.751366767   0.249411243
   0.248743676   0.751366767   0.750588757
   0.751628042   0.248474099   0.249661233
   0.751628042   0.248474099   0.750338767
   0.751628042   0.751525901   0.250338767
   0.751628042   0.751525901   0.749661233
   0.248878367   0.999974834   0.000000000
   0.248878367   0.000025166   0.500000000
   0.249161381   0.501062877   0.000000000
   0.249161381   0.498937123   0.500000000
   0.750492965   0.000244130   0.000000000
   0.750492965   0.999755870   0.500000000
   0.750684900   0.499452973   0.000000000
   0.750684900   0.500547027   0.500000000
   0.002236625   0.249335559   1.000000000
   0.999948881   0.249012353   0.500000000
   0.999948881   0.750987647   0.000000000
   0.002236625   0.750664441   0.500000000
   0.498513416   0.249337463   1.000000000
   0.499463692   0.249183503   0.500000000
   0.499463692   0.750816497   0.000000000
   0.498513416   0.750662537   0.500000000
   0.001371922   1.000000000   0.250000000
   0.001371922   1.000000000   0.750000000
   0.001134091   0.500000000   0.250000000
   0.001134091   0.500000000   0.750000000
   0.498770495   1.000000000   0.250000000
   0.498770495   1.000000000   0.750000000
   0.498458655   0.500000000   0.250000000
   0.498458655   0.500000000   0.750000000
Mg28Ni4O32
   1.00000000
   8.488643447   0.000000000   0.000000000
   0.000000000   8.487972449   0.000000000
   0.000000000   0.000000000   8.486645886
  Ni  Mg  O
  4  28  32
Direct configuration=     9
   0.000523609   0.000700258   1.000000000
   0.000523609   0.999299742   0.500000000
   0.250604672   0.249772294   0.000000000
   0.250604672   0.750227706   0.500000000
   0.000790380   0.500377137   1.000000000
   0.000790380   0.499622863   0.500000000
   0.499098161   0.000240117   0.000000000
   0.499098161   0.999759883   0.500000000
   0.498830550   0.500231831   0.000000000
   0.498830550   0.499768169   0.500000000
   0.001069985   0.248657334   0.249101310
   0.001069985   0.248657334   0.750898690
   0.001069985   0.751342666   0.250898690
   0.001069985   0.751342666   0.749101310
   0.499020573   0.249357503   0.250719084
   0.499020573   0.249357503   0.749280916
   0.499020573   0.750642497   0.249280916
   0.499020573   0.750642497   0.750719084
   0.249063970   1.000000000   0.250000000
   0.249063970   1.000000000   0.750000000
   0.249262179   0.500000000   0.250000000
   0.249262179   0.500000000   0.750000000
   0.751261572   1.000000000   0.250000000
   0.751261572   1.000000000   0.750000000
   0.750757932   0.500000000   0.250000000
   0.750757932   0.500000000   0.750000000
   0.247734579   0.248334407   0.500000000
   0.247734579   0.751665593   0.000000000
   0.750499688   0.249195072   1.000000000
   0.751483098   0.249161451   0.500000000
   0.751483098   0.750838549   0.000000000
   0.750499688   0.750804928   0.500000000
   0.249108140   0.248866858   0.250477805
   0.249108140   0.248866858   0.749522195
   0.249108140   0.751133142   0.249522195
   0.249108140   0.751133142   0.750477805
   0.751416775   0.248829077   0.249783378
   0.751416775   0.248829077   0.750216622
   0.751416775   0.751170923   0.250216622
   0.751416775   0.751170923   0.749783378
   0.249008107   0.000263882   0.000000000
   0.249008107   0.999736118   0.500000000
   0.248894386   0.501031535   0.000000000
   0.248894386   0.498968465   0.500000000
   0.750468057   0.000188291   0.000000000
   0.750468057   0.999811709   0.500000000
   0.750920595   0.499671142   0.000000000
   0.750920595   0.500328858   0.500000000
   0.002372137   0.249555803   1.000000000
   0.999847203   0.249016151   0.500000000
   0.999847203   0.750983849   0.000000000
   0.002372137   0.750444197   0.500000000
   0.498367880   0.249212009   1.000000000
   0.499474071   0.248870403   0.500000000
   0.499474071   0.751129597   0.000000000
   0.498367880   0.750787991   0.500000000
   0.001061420   1.000000000   0.250000000
   0.001061420   1.000000000   0.750000000
   0.000942632   0.500000000   0.250000000
   0.000942632   0.500000000   0.750000000
   0.498789425   1.000000000   0.250000000
   0.498789425   1.000000000   0.750000000
   0.498712749   0.500000000   0.250000000
   0.498712749   0.500000000   0.750000000
Mg28Ni4O32
   1.00000000
   8.496646470   0.000000000   0.000000000
   0.000000000   8.495860551   0.000000000
   0.000000000   0.000000000   8.494293639
  Ni  Mg  O
  4  28  32
Direct configuration=     10
   0.000478446   0.000804167   1.000000000
   0.000478446   0.999195833   0.500000000
   0.250492179   0.249772784   0.000000000
   0.250492179   0.750227216   0.500000000
   0.000467302   0.500138114   1.000000000
   0.000467302   0.499861886   0.500000000
   0.499365990   0.000471490   0.000000000
   0.499365990   0.999528510   0.500000000
   0.499091204   0.500070234   0.000000000
   0.499091204   0.499929766   0.500000000
   0.000651314   0.248775404   0.249040620
   0.000651314   0.248775404   0.750959380
   0.000651314   0.751224596   0.250959380
   0.000651314   0.751224596   0.749040620
   0.499353785   0.249856857   0.250412409
   0.499353785   0.249856857   0.749587591
   0.499353785   0.750143143   0.249587591
   0.499353785   0.750143143   0.750412409
   0.249150106   1.000000000   0.250000000
   0.249150106   1.000000000   0.750000000
   0.249847198   0.500000000   0.250000000
   0.249847198   0.500000000   0.750000000
   0.751127917   1.000000000   0.250000000
   0.751127917   1.000000000   0.750000000
   0.750282381   0.500000000   0.250000000
   0.750282381   0.500000000   0.750000000
   0.248197658   0.248674204   0.500000000
   0.248197658   0.751325796   0.000000000
   0.750296556   0.249481413   1.000000000
   0.751224660   0.249286900   0.500000000
   0.751224660   0.750713100   0.000000000
   0.750296556   0.750518587   0.500000000
   0.249530872   0.249253500   0.250704114
   0.249530872   0.249253500   0.749295886
   0.249530872   0.750746500   0.249295886
   0.249530872   0.750746500   0.750704114
   0.750977308   0.249326641   0.249787774
   0.750977308   0.249326641   0.750212226
   0.750977308   0.750673359   0.250212226
   0.750977308   0.750673359   0.749787774
   0.249378250   0.000134040   0.000000000
   0.249378250   0.999865960   0.500000000
   0.248739360   0.501293839   0.000000000
   0.248739360   0.498706161   0.500000000
   0.750151156   0.000249657   0.000000000
   0.750151156   0.999750343   0.500000000
   0.751035922   0.499791016   0.000000000
   0.751035922   0.500208984   0.500000000
   0.002015435   0.249971557   1.000000000
   0.999986799   0.249345796   0.500000000
   0.999986799   0.750654204   0.000000000
   0.002015435   0.750028443   0.500000000
   0.498717775   0.249172196   0.000000000
   0.499396708   0.248689847   0.500000000
   0.499396708   0.751310153   0.000000000
   0.498717775   0.750827804   0.500000000
   0.000702782   1.000000000   0.250000000
   0.000702782   1.000000000   0.750000000
   0.000653565   0.500000000   0.250000000
   0.000653565   0.500000000   0.750000000
   0.499040543   1.000000000   0.250000000
   0.499040543   1.000000000   0.750000000
   0.499133548   0.500000000   0.250000000
   0.499133548   0.500000000   0.750000000
Mg28Ni4O32
   1.00000000
   8.499308968   0.000000000   0.000000000
   0.000000000   8.498481482   0.000000000
   0.000000000   0.000000000   8.496826340
  Ni  Mg  O
  4  28  32
Direct configuration=     11
   0.000452713   0.000892812   1.000000000
   0.000452713   0.999107188   0.500000000
   0.250326466   0.249757729   0.000000000
   0.250326466   0.750242271   0.500000000