********************************************************************************
*                       GENERAL UTILITY LATTICE PROGRAM                        *
*                                 Julian Gale                                  *
*                       Curtin Institute for Computation                       *
*                    School of Molecular and Life Sciences                     *
*                    Curtin University, Western Australia                      *
********************************************************************************
* Version = 6.4.0 * Last modified =  22nd December 2025                        *
********************************************************************************
*  optimise     - perform optimisation run                                     *
*  conp         - constant pressure calculation                                *
********************************************************************************
*  Al/Fe substitutions in LaFeO3  perovskite - configuration 1                 *
********************************************************************************


  Job Started  at 17:31.33  5th April      2026                               

  Number of CPUs =     1


  Total number of configurations input =      1

********************************************************************************
*  Input for Configuration =   1                                               *
********************************************************************************

  Formula = La8Al2Fe6O24

  Number of irreducible atoms/shells =      80


  Total number atoms/shells =      80

  Dimensionality = 3               :  Bulk   



  Cartesian lattice vectors (Angstroms) :

        7.400000    0.000000    0.000000
        0.000000    7.400000    0.000000
        0.000000    0.000000    7.400000

  Cell parameters (Angstroms/Degrees):

  a =       7.4000    alpha =  90.0000
  b =       7.4000    beta  =  90.0000
  c =       7.4000    gamma =  90.0000

  Initial cell volume =         405.224000 Angs**3

  Temperature of configuration =   0.00     K 

  Pressure of configuration =         0.000 GPa 

  Fractional coordinates of asymmetric unit :

--------------------------------------------------------------------------------
   No.  Atomic       x           y          z         Charge      Occupancy
        Label      (Frac)      (Frac)     (Frac)        (e)         (Frac)  
--------------------------------------------------------------------------------
      1 La    c    0.000000    0.000000    0.000000     5.14900    1.000000    
      2 La    c    0.000000 *  0.000000 *  0.500000 *   5.14900    1.000000    
      3 La    c    0.000000 *  0.500000 *  0.000000 *   5.14900    1.000000    
      4 La    c    0.000000 *  0.500000 *  0.500000 *   5.14900    1.000000    
      5 La    c    0.500000 *  0.000000 *  0.000000 *   5.14900    1.000000    
      6 La    c    0.500000 *  0.000000 *  0.500000 *   5.14900    1.000000    
      7 La    c    0.500000 *  0.500000 *  0.000000 *   5.14900    1.000000    
      8 La    c    0.500000 *  0.500000 *  0.500000 *   5.14900    1.000000    
      9 Al    c    0.250000 *  0.250000 *  0.250000 *   0.04300    1.000000    
     10 Al    c    0.250000 *  0.250000 *  0.750000 *   0.04300    1.000000    
     11 Fe    c    0.250000 *  0.750000 *  0.250000 *   1.97100    1.000000    
     12 Fe    c    0.250000 *  0.750000 *  0.750000 *   1.97100    1.000000    
     13 Fe    c    0.750000 *  0.250000 *  0.250000 *   1.97100    1.000000    
     14 Fe    c    0.750000 *  0.250000 *  0.750000 *   1.97100    1.000000    
     15 Fe    c    0.750000 *  0.750000 *  0.250000 *   1.97100    1.000000    
     16 Fe    c    0.750000 *  0.750000 *  0.750000 *   1.97100    1.000000    
     17 O     c    0.250000 *  0.250000 *  0.000000 *   0.51300    1.000000    
     18 O     c    0.250000 *  0.250000 *  0.500000 *   0.51300    1.000000    
     19 O     c    0.250000 *  0.750000 *  0.000000 *   0.51300    1.000000    
     20 O     c    0.250000 *  0.750000 *  0.500000 *   0.51300    1.000000    
     21 O     c    0.750000 *  0.250000 *  0.000000 *   0.51300    1.000000    
     22 O     c    0.750000 *  0.250000 *  0.500000 *   0.51300    1.000000    
     23 O     c    0.750000 *  0.750000 *  0.000000 *   0.51300    1.000000    
     24 O     c    0.750000 *  0.750000 *  0.500000 *   0.51300    1.000000    
     25 O     c    0.000000 *  0.250000 *  0.250000 *   0.51300    1.000000    
     26 O     c    0.000000 *  0.250000 *  0.750000 *   0.51300    1.000000    
     27 O     c    0.000000 *  0.750000 *  0.250000 *   0.51300    1.000000    
     28 O     c    0.000000 *  0.750000 *  0.750000 *   0.51300    1.000000    
     29 O     c    0.500000 *  0.250000 *  0.250000 *   0.51300    1.000000    
     30 O     c    0.500000 *  0.250000 *  0.750000 *   0.51300    1.000000    
     31 O     c    0.500000 *  0.750000 *  0.250000 *   0.51300    1.000000    
     32 O     c    0.500000 *  0.750000 *  0.750000 *   0.51300    1.000000    
     33 O     c    0.250000 *  0.000000 *  0.250000 *   0.51300    1.000000    
     34 O     c    0.250000 *  0.000000 *  0.750000 *   0.51300    1.000000    
     35 O     c    0.250000 *  0.500000 *  0.250000 *   0.51300    1.000000    
     36 O     c    0.250000 *  0.500000 *  0.750000 *   0.51300    1.000000    
     37 O     c    0.750000 *  0.000000 *  0.250000 *   0.51300    1.000000    
     38 O     c    0.750000 *  0.000000 *  0.750000 *   0.51300    1.000000    
     39 O     c    0.750000 *  0.500000 *  0.250000 *   0.51300    1.000000    
     40 O     c    0.750000 *  0.500000 *  0.750000 *   0.51300    1.000000    
     41 La    s    0.000000 *  0.000000 *  0.000000 *  -2.14900    1.000000    
     42 La    s    0.000000 *  0.000000 *  0.500000 *  -2.14900    1.000000    
     43 La    s    0.000000 *  0.500000 *  0.000000 *  -2.14900    1.000000    
     44 La    s    0.000000 *  0.500000 *  0.500000 *  -2.14900    1.000000    
     45 La    s    0.500000 *  0.000000 *  0.000000 *  -2.14900    1.000000    
     46 La    s    0.500000 *  0.000000 *  0.500000 *  -2.14900    1.000000    
     47 La    s    0.500000 *  0.500000 *  0.000000 *  -2.14900    1.000000    
     48 La    s    0.500000 *  0.500000 *  0.500000 *  -2.14900    1.000000    
     49 Al    s    0.250000 *  0.250000 *  0.250000 *   2.95700    1.000000    
     50 Al    s    0.250000 *  0.250000 *  0.750000 *   2.95700    1.000000    
     51 Fe    s    0.250000 *  0.750000 *  0.250000 *   1.02900    1.000000    
     52 Fe    s    0.250000 *  0.750000 *  0.750000 *   1.02900    1.000000    
     53 Fe    s    0.750000 *  0.250000 *  0.250000 *   1.02900    1.000000    
     54 Fe    s    0.750000 *  0.250000 *  0.750000 *   1.02900    1.000000    
     55 Fe    s    0.750000 *  0.750000 *  0.250000 *   1.02900    1.000000    
     56 Fe    s    0.750000 *  0.750000 *  0.750000 *   1.02900    1.000000    
     57 O     s    0.250000 *  0.250000 *  0.000000 *  -2.51300    1.000000    
     58 O     s    0.250000 *  0.250000 *  0.500000 *  -2.51300    1.000000    
     59 O     s    0.250000 *  0.750000 *  0.000000 *  -2.51300    1.000000    
     60 O     s    0.250000 *  0.750000 *  0.500000 *  -2.51300    1.000000    
     61 O     s    0.750000 *  0.250000 *  0.000000 *  -2.51300    1.000000    
     62 O     s    0.750000 *  0.250000 *  0.500000 *  -2.51300    1.000000    
     63 O     s    0.750000 *  0.750000 *  0.000000 *  -2.51300    1.000000    
     64 O     s    0.750000 *  0.750000 *  0.500000 *  -2.51300    1.000000    
     65 O     s    0.000000 *  0.250000 *  0.250000 *  -2.51300    1.000000    
     66 O     s    0.000000 *  0.250000 *  0.750000 *  -2.51300    1.000000    
     67 O     s    0.000000 *  0.750000 *  0.250000 *  -2.51300    1.000000    
     68 O     s    0.000000 *  0.750000 *  0.750000 *  -2.51300    1.000000    
     69 O     s    0.500000 *  0.250000 *  0.250000 *  -2.51300    1.000000    
     70 O     s    0.500000 *  0.250000 *  0.750000 *  -2.51300    1.000000    
     71 O     s    0.500000 *  0.750000 *  0.250000 *  -2.51300    1.000000    
     72 O     s    0.500000 *  0.750000 *  0.750000 *  -2.51300    1.000000    
     73 O     s    0.250000 *  0.000000 *  0.250000 *  -2.51300    1.000000    
     74 O     s    0.250000 *  0.000000 *  0.750000 *  -2.51300    1.000000    
     75 O     s    0.250000 *  0.500000 *  0.250000 *  -2.51300    1.000000    
     76 O     s    0.250000 *  0.500000 *  0.750000 *  -2.51300    1.000000    
     77 O     s    0.750000 *  0.000000 *  0.250000 *  -2.51300    1.000000    
     78 O     s    0.750000 *  0.000000 *  0.750000 *  -2.51300    1.000000    
     79 O     s    0.750000 *  0.500000 *  0.250000 *  -2.51300    1.000000    
     80 O     s    0.750000 *  0.500000 *  0.750000 *  -2.51300    1.000000    
--------------------------------------------------------------------------------



********************************************************************************
*  General input information                                                   *
********************************************************************************

  Species output for all configurations : 

--------------------------------------------------------------------------------
  Species    Type    Atomic    Atomic    Charge       Radii (Angs)     Library
                     Number     Mass       (e)     Cova   Ionic  VDW   Symbol
--------------------------------------------------------------------------------
    Fe       Core       26      55.85   1.971000   1.340  0.000  2.000          
    Fe       Shell      26       0.00   1.029000   1.340  0.000  2.000          
    Al       Core       13      26.98   0.043000   1.350  0.000  2.050          
    Al       Shell      13       0.00   2.957000   1.350  0.000  2.050          
    La       Core       57     138.91   5.149000   1.870  0.000  2.790          
    La       Shell      57       0.00  -2.149000   1.870  0.000  2.790          
    O        Core        8      16.00   0.513000   0.730  0.000  1.360          
    O        Shell       8       0.00  -2.513000   0.730  0.000  1.360          
--------------------------------------------------------------------------------


  Lattice summation method               =    Ewald          (3-D)
                                         =    Parry          (2-D)
                                         =    Saunders et al (1-D)
  Accuracy factor for lattice sums       =   12.000


  Analytic derivatives to be used

  Time limit = Infinity

  Maximum range for interatomic potentials =    100000.000000 Angstroms

  General interatomic potentials :

--------------------------------------------------------------------------------
Atom  Types   Potential      Parameter       Value         Units   Cutoffs(Ang)
  1     2                                                            Min /  Max 
--------------------------------------------------------------------------------
O    s Fe   s Buckingham    Buckingham A     3219.3350    eV        0.000 10.000
                            Buckingham rho  0.26410000    Ang       
                            Buckingham C     0.0000000    eV*Ang^6  
--------------------------------------------------------------------------------
O    s Al   s Buckingham    Buckingham A     2409.5050    eV        0.000 10.000
                            Buckingham rho  0.26490000    Ang       
                            Buckingham C     0.0000000    eV*Ang^6  
--------------------------------------------------------------------------------
O    s La   s Buckingham    Buckingham A     5436.8270    eV        0.000 10.000
                            Buckingham rho  0.29390000    Ang       
                            Buckingham C     0.0000000    eV*Ang^6  
--------------------------------------------------------------------------------
O    s O    s Buckingham    Buckingham A     25.410000    eV        0.000 12.000
                            Buckingham rho  0.69370000    Ang       
                            Buckingham C     32.320000    eV*Ang^6  
--------------------------------------------------------------------------------
Fe   c Fe   s Spring (c-s)  Spring k 2       179.58000    eV*Ang^-2 0.000  0.800
                            Spring k 4       0.0000000    eV*Ang^-4 
--------------------------------------------------------------------------------
Al   c Al   s Spring (c-s)  Spring k 2       403.98000    eV*Ang^-2 0.000  0.800
                            Spring k 4       0.0000000    eV*Ang^-4 
--------------------------------------------------------------------------------
La   c La   s Spring (c-s)  Spring k 2       173.90000    eV*Ang^-2 0.000  0.800
                            Spring k 4       0.0000000    eV*Ang^-4 
--------------------------------------------------------------------------------
O    c O    s Spring (c-s)  Spring k 2       20.530000    eV*Ang^-2 0.000  0.800
                            Spring k 4       0.0000000    eV*Ang^-4 
--------------------------------------------------------------------------------

********************************************************************************
*  Output for configuration   1                                                *
********************************************************************************


  Components of energy : 

--------------------------------------------------------------------------------
  Interatomic potentials     =         267.29800011 eV    
  Monopole - monopole (real) =        -714.63043649 eV    
  Monopole - monopole (recip)=        -672.57146413 eV    
  Monopole - monopole (total)=       -1387.20190062 eV    
--------------------------------------------------------------------------------
  Total lattice energy       =       -1119.90390050 eV    
--------------------------------------------------------------------------------
  Total lattice energy       =         -108053.6071 kJ/(mole unit cells)
--------------------------------------------------------------------------------


  Number of variables =      243

  Maximum number of calculations  =          1000
  Maximum Hessian update interval =            10
  Maximum step size               =   1.000000000
  Maximum parameter tolerance     =   0.000010000
  Maximum function  tolerance     =   0.000010000
  Maximum gradient  tolerance     =   0.001000000
  Maximum gradient  component     =   0.010000000

  Symmetry not applied to optimisation

  Cell parameters to be optimised using strains

  Newton-Raphson optimiser to be used

  BFGS hessian update to be used

  Hessian eigenvalue shifts to be used to ensure all values are positive

  Lower half triangular hessian to be used

  Start of bulk optimisation :

  Cycle:      0 Energy:     -1119.903901  Gnorm:      1.069803  CPU:    0.038
  ** Hessian lowest eigenvalue is negative =  -1.727E+01
  ** Hessian calculated **
  Cycle:      1 Energy:     -1130.885048  Gnorm:      0.053076  CPU:    0.067
  ** Hessian lowest eigenvalue is negative =  -4.350E+01
  ** Hessian calculated **
  Cycle:      2 Energy:     -1130.927552  Gnorm:      0.002343  CPU:    0.123
  Cycle:      3 Energy:     -1130.980473  Gnorm:      0.023336  CPU:    0.165
  Cycle:      4 Energy:     -1131.098672  Gnorm:      0.112352  CPU:    0.198
  Cycle:      5 Energy:     -1131.119984  Gnorm:      0.170853  CPU:    0.218
  Cycle:      6 Energy:     -1131.182348  Gnorm:      0.132916  CPU:    0.243
  Cycle:      7 Energy:     -1131.247332  Gnorm:      0.129991  CPU:    0.267
  Cycle:      8 Energy:     -1131.315713  Gnorm:      0.057603  CPU:    0.287
  Cycle:      9 Energy:     -1131.346855  Gnorm:      0.049542  CPU:    0.308
  Cycle:     10 Energy:     -1131.354220  Gnorm:      0.025371  CPU:    0.328
  Cycle:     11 Energy:     -1131.357944  Gnorm:      0.008502  CPU:    0.348
  ** Hessian lowest eigenvalue is negative =  -1.110E+01
  ** Hessian calculated **
  Cycle:     12 Energy:     -1131.359375  Gnorm:      0.004868  CPU:    0.404
  Cycle:     13 Energy:     -1131.360789  Gnorm:      0.000976  CPU:    0.433
  Cycle:     14 Energy:     -1131.361146  Gnorm:      0.001254  CPU:    0.453
  Cycle:     15 Energy:     -1131.364497  Gnorm:      0.019109  CPU:    0.490
  Cycle:     16 Energy:     -1131.365069  Gnorm:      0.024336  CPU:    0.514
  Cycle:     17 Energy:     -1131.375510  Gnorm:      0.033485  CPU:    0.543
  Cycle:     18 Energy:     -1131.392798  Gnorm:      0.032571  CPU:    0.568
  Cycle:     19 Energy:     -1131.405747  Gnorm:      0.026882  CPU:    0.588
  Cycle:     20 Energy:     -1131.413505  Gnorm:      0.017820  CPU:    0.609
  Cycle:     21 Energy:     -1131.419091  Gnorm:      0.021072  CPU:    0.633
  ** Hessian calculated **
  Cycle:     22 Energy:     -1131.428034  Gnorm:      0.004812  CPU:    0.690
  Cycle:     23 Energy:     -1131.428302  Gnorm:      0.001405  CPU:    0.711
  Cycle:     24 Energy:     -1131.428328  Gnorm:      0.000249  CPU:    0.731


  **** Optimisation achieved ****


  Final energy =   -1131.42832879 eV      
  Final Gnorm  =       0.00001668

  Components of energy : 

--------------------------------------------------------------------------------
  Interatomic potentials     =         186.54674217 eV    
  Monopole - monopole (real) =         -45.62198700 eV    
  Monopole - monopole (recip)=       -1272.35308395 eV    
  Monopole - monopole (total)=       -1317.97507095 eV    
--------------------------------------------------------------------------------
  Total lattice energy       =       -1131.42832879 eV    
--------------------------------------------------------------------------------
  Total lattice energy       =         -109165.5383 kJ/(mole unit cells)
--------------------------------------------------------------------------------

  Final fractional coordinates of atoms :

--------------------------------------------------------------------------------
   No.  Atomic        x           y          z          Radius
        Label       (Frac)      (Frac)     (Frac)       (Angs) 
--------------------------------------------------------------------------------
     1  La    c     0.000000    0.000000    0.000000    0.000000
     2  La    c     0.982122    0.025185    0.500000    0.000000
     3  La    c     0.002571    0.494100    0.000000    0.000000
     4  La    c     0.973594    0.519734    0.500000    0.000000
     5  La    c     0.499065    0.997171    0.000000    0.000000
     6  La    c     0.470089    0.022805    0.500000    0.000000
     7  La    c     0.490537    0.491722    0.000000    0.000000
     8  La    c     0.472659    0.516904    0.500000    0.000000
     9  Al    c     0.236330    0.258452    0.250000    0.000000
    10  Al    c     0.236330    0.258452    0.750000    0.000000
    11  Fe    c     0.236330    0.758452    0.250000    0.000000
    12  Fe    c     0.236330    0.758452    0.750000    0.000000
    13  Fe    c     0.736330    0.258453    0.250000    0.000000
    14  Fe    c     0.736330    0.258453    0.750000    0.000000
    15  Fe    c     0.736330    0.758453    0.250000    0.000000
    16  Fe    c     0.736330    0.758453    0.750000    0.000000
    17  O     c     0.218257    0.247363    0.000000    0.000000
    18  O     c     0.254402    0.269541    0.500000    0.000000
    19  O     c     0.258894    0.780043    0.000000    0.000000
    20  O     c     0.213767    0.736861    0.500000    0.000000
    21  O     c     0.745946    0.289379    0.000000    0.000000
    22  O     c     0.726713    0.227527    0.500000    0.000000
    23  O     c     0.700271    0.738974    0.000000    0.000000
    24  O     c     0.772389    0.777932    0.500000    0.000000
    25  O     c     0.992261    0.280093    0.265172    0.000000
    26  O     c     0.992261    0.280093    0.734828    0.000000
    27  O     c     0.987134    0.734824    0.221468    0.000000
    28  O     c     0.987134    0.734824    0.778532    0.000000
    29  O     c     0.480398    0.236812    0.234829    0.000000
    30  O     c     0.480398    0.236812    0.765171    0.000000
    31  O     c     0.485526    0.782081    0.278531    0.000000
    32  O     c     0.485526    0.782081    0.721469    0.000000
    33  O     c     0.213726    0.014215    0.266903    0.000000
    34  O     c     0.213726    0.014215    0.733097    0.000000
    35  O     c     0.258933    0.502689    0.233097    0.000000
    36  O     c     0.258933    0.502689    0.766903    0.000000
    37  O     c     0.758733    0.009419    0.221678    0.000000
    38  O     c     0.758733    0.009419    0.778322    0.000000
    39  O     c     0.713927    0.507486    0.278322    0.000000
    40  O     c     0.713927    0.507486    0.721678    0.000000
    41  La    s     0.999133    0.000740    0.000000    0.000000
    42  La    s     0.982825    0.023824    0.500000    0.000000
    43  La    s     0.000930    0.495640    0.000000    0.000000
    44  La    s     0.974976    0.517583    0.500000    0.000000
    45  La    s     0.497683    0.999322    0.000000    0.000000
    46  La    s     0.471729    0.021266    0.500000    0.000000
    47  La    s     0.489834    0.493082    0.000000    0.000000
    48  La    s     0.473526    0.516164    0.500000    0.000000
    49  Al    s     0.236330    0.258452    0.250000    0.000000
    50  Al    s     0.236330    0.258452    0.750000    0.000000
    51  Fe    s     0.236330    0.758452    0.250000    0.000000
    52  Fe    s     0.236330    0.758452    0.750000    0.000000
    53  Fe    s     0.736330    0.258453    0.250000    0.000000
    54  Fe    s     0.736330    0.258453    0.750000    0.000000
    55  Fe    s     0.736330    0.758453    0.250000    0.000000
    56  Fe    s     0.736330    0.758453    0.750000    0.000000
    57  O     s     0.215296    0.248831    0.000000    0.000000
    58  O     s     0.257363    0.268073    0.500000    0.000000
    59  O     s     0.258254    0.782191    0.000000    0.000000
    60  O     s     0.214407    0.734713    0.500000    0.000000
    61  O     s     0.744682    0.291218    0.000000    0.000000
    62  O     s     0.727977    0.225688    0.500000    0.000000
    63  O     s     0.698058    0.740450    0.000000    0.000000
    64  O     s     0.774601    0.776456    0.500000    0.000000
    65  O     s     0.993293    0.280364    0.265338    0.000000
    66  O     s     0.993293    0.280364    0.734662    0.000000
    67  O     s     0.988315    0.734541    0.221181    0.000000
    68  O     s     0.988315    0.734541    0.778819    0.000000
    69  O     s     0.479366    0.236541    0.234663    0.000000
    70  O     s     0.479366    0.236541    0.765337    0.000000
    71  O     s     0.484345    0.782365    0.278818    0.000000
    72  O     s     0.484345    0.782365    0.721182    0.000000
    73  O     s     0.212887    0.015574    0.267799    0.000000
    74  O     s     0.212887    0.015574    0.732201    0.000000
    75  O     s     0.259773    0.501331    0.232200    0.000000
    76  O     s     0.259773    0.501331    0.767800    0.000000
    77  O     s     0.758584    0.010044    0.220904    0.000000
    78  O     s     0.758584    0.010044    0.779096    0.000000
    79  O     s     0.714076    0.506861    0.279096    0.000000
    80  O     s     0.714076    0.506861    0.720904    0.000000
--------------------------------------------------------------------------------

  Final Cartesian lattice vectors (Angstroms) :

        7.810587   -0.016430    0.000000
       -0.016421    7.806314   -0.000000
        0.000000   -0.000000    7.806308


  Final cell parameters and derivatives :

--------------------------------------------------------------------------------
       a            7.810604 Angstrom     dE/de1(xx)     0.000043 eV/strain
       b            7.806332 Angstrom     dE/de2(yy)    -0.000377 eV/strain
       c            7.806308 Angstrom     dE/de3(zz)    -0.000229 eV/strain
       alpha       90.000000 Degrees      dE/de4(yz)     0.000000 eV/strain
       beta        90.000000 Degrees      dE/de5(xz)     0.000000 eV/strain
       gamma       90.241052 Degrees      dE/de6(xy)     0.000089 eV/strain
--------------------------------------------------------------------------------

  Primitive cell volume =           475.963290 Angs**3

  Density of cell =      6.574183 g/cm**3

  Non-primitive cell volume =           475.963290 Angs**3


  Final internal derivatives :

--------------------------------------------------------------------------------
   No.  Atomic          a             b             c           Radius
        Label          (eV)          (eV)          (eV)        (eV/Angs)
--------------------------------------------------------------------------------
      1 La    c       0.000000      0.000000      0.000000      0.000000
      2 La    c       0.000502     -0.000210      0.000000      0.000000
      3 La    c      -0.000331     -0.000161     -0.000000      0.000000
      4 La    c      -0.000256      0.000256      0.000000      0.000000
      5 La    c      -0.000075      0.000051      0.000000      0.000000
      6 La    c      -0.000221     -0.000082     -0.000000      0.000000
      7 La    c      -0.000477      0.000791     -0.000000      0.000000
      8 La    c      -0.000230     -0.000212      0.000000      0.000000
      9 Al    c       0.000002      0.000004      0.000006      0.000000
     10 Al    c       0.000002      0.000004     -0.000006      0.000000
     11 Fe    c      -0.000080     -0.000066      0.000120      0.000000
     12 Fe    c      -0.000080     -0.000066     -0.000120      0.000000
     13 Fe    c      -0.000042      0.000104      0.000124      0.000000
     14 Fe    c      -0.000042      0.000104     -0.000124      0.000000
     15 Fe    c       0.000188     -0.000023     -0.000019      0.000000
     16 Fe    c       0.000188     -0.000023      0.000019      0.000000
     17 O     c      -0.000015      0.000297     -0.000000      0.000000
     18 O     c      -0.000085     -0.000004      0.000000      0.000000
     19 O     c      -0.000069     -0.000061     -0.000000      0.000000
     20 O     c       0.000032     -0.000033      0.000000      0.000000
     21 O     c       0.000107     -0.000021     -0.000000      0.000000
     22 O     c       0.000039      0.000034     -0.000000      0.000000
     23 O     c       0.000034     -0.000075     -0.000000      0.000000
     24 O     c       0.000015     -0.000002     -0.000000      0.000000
     25 O     c      -0.000002     -0.000033     -0.000027      0.000000
     26 O     c      -0.000002     -0.000033      0.000027      0.000000
     27 O     c       0.000002      0.000114     -0.000169      0.000000
     28 O     c       0.000002      0.000114      0.000169      0.000000
     29 O     c       0.000019      0.000012     -0.000004      0.000000
     30 O     c       0.000019      0.000012      0.000004      0.000000
     31 O     c       0.000039     -0.000041     -0.000025      0.000000
     32 O     c       0.000039     -0.000041      0.000025      0.000000
     33 O     c      -0.000054      0.000002      0.000045      0.000000
     34 O     c      -0.000054      0.000002     -0.000045      0.000000
     35 O     c       0.000069     -0.000014     -0.000021      0.000000
     36 O     c       0.000069     -0.000014      0.000021      0.000000
     37 O     c      -0.000018      0.000046      0.000065      0.000000
     38 O     c      -0.000018      0.000046     -0.000065      0.000000
     39 O     c      -0.000050      0.000036     -0.000015      0.000000
     40 O     c      -0.000050      0.000036      0.000015      0.000000
     41 La    s      -0.001402     -0.002534      0.000000      0.000000
     42 La    s      -0.000687      0.000273      0.000000      0.000000
     43 La    s       0.000230      0.000321      0.000000      0.000000
     44 La    s       0.000152     -0.000077     -0.000000      0.000000
     45 La    s       0.000271     -0.000237     -0.000000      0.000000
     46 La    s       0.000393      0.000146      0.000000      0.000000
     47 La    s       0.000673     -0.000733      0.000000      0.000000
     48 La    s       0.000433      0.000329     -0.000000      0.000000
     49 Al    s      -0.000159      0.000348      0.000087      0.000000
     50 Al    s      -0.000159      0.000348     -0.000087      0.000000
     51 Fe    s      -0.000135     -0.000163     -0.000287      0.000000
     52 Fe    s      -0.000135     -0.000163      0.000287      0.000000
     53 Fe    s       0.000169     -0.000020     -0.000231      0.000000
     54 Fe    s       0.000169     -0.000020      0.000231      0.000000
     55 Fe    s      -0.000070     -0.000300      0.000004      0.000000
     56 Fe    s      -0.000070     -0.000300     -0.000004      0.000000
     57 O     s       0.000276     -0.000577      0.000000      0.000000
     58 O     s       0.000046     -0.000303      0.000000      0.000000
     59 O     s       0.000415      0.000236      0.000000      0.000000
     60 O     s       0.000052      0.000007     -0.000000      0.000000
     61 O     s      -0.000365      0.000047      0.000000      0.000000
     62 O     s      -0.000035     -0.000211      0.000000      0.000000
     63 O     s      -0.000102      0.000492     -0.000000      0.000000
     64 O     s      -0.000134      0.000069      0.000000      0.000000
     65 O     s       0.000081      0.000123      0.000137      0.000000
     66 O     s       0.000081      0.000123     -0.000137      0.000000
     67 O     s       0.000075      0.000030      0.000087      0.000000
     68 O     s       0.000075      0.000030     -0.000087      0.000000
     69 O     s      -0.000128     -0.000193     -0.000000      0.000000
     70 O     s      -0.000128     -0.000193      0.000000      0.000000
     71 O     s      -0.000116      0.000241      0.000011      0.000000
     72 O     s      -0.000116      0.000241     -0.000011      0.000000
     73 O     s       0.000122      0.000090     -0.000439      0.000000
     74 O     s       0.000122      0.000090      0.000439      0.000000
     75 O     s      -0.000216      0.000027      0.000150      0.000000
     76 O     s      -0.000216      0.000027     -0.000150      0.000000
     77 O     s       0.000106     -0.000027     -0.000362      0.000000
     78 O     s       0.000106     -0.000027      0.000362      0.000000
     79 O     s       0.000202     -0.000099      0.000168      0.000000
     80 O     s       0.000202     -0.000099     -0.000168      0.000000
--------------------------------------------------------------------------------
  Maximum abs         0.001402      0.002534      0.000439      0.000000
--------------------------------------------------------------------------------


  Time to end of optimisation =       0.7513 seconds


  Peak dynamic memory used =       3.39 MB 


  Timing analysis for GULP :

--------------------------------------------------------------------------------
  Task / Subroutine                                          Time (Seconds)
--------------------------------------------------------------------------------
  Calculation of reciprocal space energy and derivatives          0.0485
  Calculation of real space energy and derivatives                0.6792
  Calculation and manipulation of Hessian matrix                  0.0088
  Calculation of matrix inversion                                 0.0075
--------------------------------------------------------------------------------
  Total CPU time                                                  0.7513
--------------------------------------------------------------------------------


  Job Finished at 17:31.34  5th April      2026                               

