Mg28Ni4O32
   1.00000000
   8.440358759   0.000000236   0.000003811
   0.000000236   8.440342428  -0.000004146
   0.000003811  -0.000004146   8.440338958
  Ni  Mg  O
  4  28  32
Direct configuration=     1
   0.000073496   0.000054095   0.999959796
   0.999949131   0.499969138   0.499938721
   0.999947276   0.250020735   0.249994585
   0.250009832   0.999950154   0.750085655
   0.000105147   0.000068464   0.500039386
   0.999993964   0.499928026   0.000052817
   0.499914756   0.999983259   0.999921077
   0.499907081   0.999962626   0.500107127
   0.500028215   0.500041672   0.999972983
   0.500002279   0.500019120   0.500016299
   0.000097837   0.249905743   0.749974289
   0.999993019   0.749978873   0.250038808
   0.000065905   0.750080262   0.749982391
   0.500005076   0.249982187   0.250006125
   0.499914277   0.249937487   0.749990881
   0.500010986   0.750012589   0.250001878
   0.499924947   0.750057501   0.749992803
   0.249839350   0.000079986   0.249936476
   0.249861858   0.499944068   0.250121261
   0.249899313   0.500005546   0.749876728
   0.750147361   0.000048080   0.249924177
   0.750076992   0.999990346   0.750049805
   0.750137219   0.499954386   0.250092752
   0.750058024   0.500013643   0.749910046
   0.249862111   0.249820274   0.999971626
   0.249852713   0.250021153   0.500022310
   0.249946910   0.750175459   0.999903101
   0.249934459   0.749989705   0.500090339
   0.750141340   0.249941068   0.000066462
   0.750167486   0.250081961   0.499938271
   0.750037649   0.750038287   0.000002988
   0.750077635   0.749918979   0.500005163
   0.250108608   0.249942783   0.249987590
   0.249920562   0.250192416   0.750060630
   0.249932721   0.750047940   0.249984248
   0.249944011   0.749833401   0.750061556
   0.749911353   0.249985242   0.249994317
   0.750040848   0.249938737   0.750010646
   0.750070046   0.750011493   0.249994464
   0.750025434   0.750062816   0.750008828
   0.250023058   0.000027718   0.000170029
   0.249907865   0.999991287   0.499802647
   0.249878099   0.499994979   0.999943791
   0.250126660   0.499958848   0.500018911
   0.749930776   0.000055173   0.999990024
   0.750092564   0.000017143   0.500040474
   0.750121034   0.499980855   0.000007056
   0.749892678   0.499947301   0.499954669
   0.000023689   0.250142729   0.999924101
   0.999972898   0.249819487   0.500029326
   0.000052146   0.749828539   0.000020604
   0.999995234   0.750233176   0.499928252
   0.499999951   0.249922422   0.000078304
   0.500006902   0.250051068   0.499921524
   0.499985766   0.750078922   0.000001666
   0.499994046   0.749955479   0.499994781
   0.000053927   0.999935583   0.250143380
   0.999839930   0.000049611   0.749871119
   0.000011147   0.500059238   0.249785531
   0.000081364   0.499955806   0.750278708
   0.499953027   0.000090976   0.249923555
   0.500181186   0.000021653   0.750068760
   0.499997660   0.499909524   0.250060897
   0.499941164   0.499982779   0.749952485
Mg28Ni4O32
   1.00000000
   8.442437034   0.000001743   0.000026305
   0.000001743   8.442326657  -0.000029349
   0.000026305  -0.000029349   8.442303586
  Ni  Mg  O
  4  28  32
Direct configuration=     2
   0.000413938   0.000305822   0.999772089
   0.999703632   0.499827230   0.499663796
   0.999694134   0.250100687   0.249945758
   0.250045572   0.999713481   0.750489795
   0.000609136   0.000398953   0.500224066
   0.000014901   0.499585180   0.000276992
   0.499521022   0.999942472   0.999581726
   0.499472529   0.999811966   0.500585657
   0.500120406   0.500209990   0.999847993
   0.499995615   0.500073975   0.500083695
   0.000563361   0.249450335   0.749865905
   0.999994052   0.749896175   0.250213156
   0.000371012   0.750465178   0.749924049
   0.500009655   0.249867107   0.250035146
   0.499511439   0.249653701   0.749950687
   0.500030610   0.750104150   0.250010998
   0.499571968   0.750317409   0.749959596
   0.249034053   0.000479898   0.249651960
   0.249188971   0.499663867   0.250663975
   0.249356264   0.500010089   0.749325470
   0.750879542   0.000288440   0.249583016
   0.750481732   0.999974242   0.750265133
   0.750804481   0.499722337   0.250512474
   0.750382814   0.500045848   0.749506045
   0.249182394   0.248995193   0.999849789
   0.249137630   0.250113672   0.500106514
   0.249633724   0.750979769   0.999469086
   0.249584436   0.749955122   0.500488249
   0.750836311   0.249657220   0.000367550
   0.750984249   0.250415669   0.499654534
   0.750270427   0.750217527   0.000017719
   0.750488629   0.749592826   0.500029719
   0.250549877   0.249675802   0.249936158
   0.249509413   0.251064975   0.750342906
   0.249593097   0.750266891   0.249920590
   0.249652812   0.749078044   0.750345253
   0.749562053   0.249920847   0.249966921
   0.750264819   0.249666276   0.750054814
   0.750427870   0.750056696   0.249969442
   0.750167846   0.750342329   0.750044132
   0.250065715   0.000172185   0.000956853
   0.249475498   0.999951940   0.498912890
   0.249316230   0.499964757   0.999695478
   0.250654582   0.499753884   0.500093764
   0.749676579   0.000326214   0.999967089
   0.750532204   0.000100823   0.500215121
   0.750688522   0.499887132   0.000052553
   0.749449837   0.499690062   0.499724029
   0.000150943   0.250762547   0.999585398
   0.999859374   0.248979098   0.500142649
   0.000310196   0.749080681   0.000101322
   0.999986103   0.751325554   0.499604994
   0.499987051   0.249534044   0.000426374
   0.500018893   0.250271319   0.499579365
   0.499909469   0.750483081   0.999986885
   0.499949546   0.749757484   0.499998383
   0.000303701   0.999673408   0.250792346
   0.999127734   0.000288988   0.749282686
   0.000053504   0.500306776   0.248794686
   0.000451469   0.499747652   0.751556494
   0.499736680   0.000508137   0.249554408
   0.501001799   0.000113993   0.750403484
   0.500002582   0.499496591   0.250349244
   0.499675363   0.499916262   0.749720953
Mg28Ni4O32
   1.00000000
   8.443053923   0.000002310   0.000033242
   0.000002310   8.442916065  -0.000037694
   0.000033242  -0.000037694   8.442887612
  Ni  Mg  O
  4  28  32
Direct configuration=     3
   0.000443848   0.000330314   0.999753330
   0.999671350   0.499814256   0.499644291
   0.999662802   0.250093426   0.249919366
   0.250040078   0.999685652   0.750534664
   0.000668800   0.000438262   0.500241862
   0.000059994   0.499548014   0.000277306
   0.499489715   0.999971650   0.999577300
   0.499429553   0.999818377   0.500611823
   0.500094906   0.500203619   0.999837127
   0.499980143   0.500048812   0.500082099
   0.000614395   0.249393332   0.749866100
   0.000023719   0.749902830   0.250222747
   0.000395726   0.750512050   0.749939683
   0.499993293   0.249827815   0.250038044
   0.499470186   0.249635734   0.749949071
   0.500004655   0.750142661   0.250011767
   0.499537373   0.750332759   0.749957437
   0.248908119   0.000541334   0.249638189
   0.249101325   0.499619276   0.250694988
   0.249240352   0.499991656   0.749294461
   0.750990426   0.000323685   0.249562122
   0.750557856   0.999998348   0.750270845
   0.750890290   0.499684572   0.250537719
   0.750462306   0.500020703   0.749482915
   0.249086453   0.248930497   0.999848513
   0.249044484   0.250116437   0.500096626
   0.249547334   0.751043163   0.999446452
   0.249512223   0.749963320   0.500504756
   0.750933537   0.249624435   0.000387116
   0.751091930   0.250401989   0.499631785
   0.750342810   0.750234340   0.000020418
   0.750569916   0.749608815   0.500031947
   0.250529752   0.249652457   0.249936716
   0.249434722   0.251121646   0.750368042
   0.249536213   0.750283009   0.249923077
   0.249595759   0.749029341   0.750367585
   0.749589188   0.249916897   0.249963559
   0.750318584   0.249652688   0.750053735
   0.750491411   0.750055675   0.249967912
   0.750207245   0.750356566   0.750042277
   0.250006920   0.000199010   0.001022143
   0.249435228   0.999950831   0.498858124
   0.249270920   0.499954644   0.999686421
   0.250641480   0.499722685   0.500087559
   0.749719760   0.000363915   0.999986049
   0.750581143   0.000113587   0.500218003
   0.750744158   0.499872874   0.000067029
   0.749465924   0.499655512   0.499686904
   0.000177768   0.250775878   0.999567429
   0.999862201   0.248905066   0.500131801
   0.000347646   0.749059120   0.000094995
   0.999998055   0.751431704   0.499586811
   0.499973092   0.249475060   0.000442124
   0.500001043   0.250272763   0.499570097
   0.499891790   0.750552911   0.999966372
   0.499929404   0.749749853   0.500022723
   0.000323534   0.999684670   0.250834650
   0.999096417   0.000317997   0.749240806
   0.000050476   0.500303073   0.248713361
   0.000474827   0.499725835   0.751654579
   0.499718064   0.000540339   0.249510124
   0.501055561   0.000116731   0.750446088
   0.500014608   0.499465721   0.250378345
   0.499657211   0.499919809   0.749691695
Mg28Ni4O32
   1.00000000
   8.451158311   0.000010102   0.000125013
   0.000010102   8.450660642  -0.000149480
   0.000125014  -0.000149481   8.450562675
  Ni  Mg  O
  4  28  32
Direct configuration=     4
   0.000658273   0.000529038   0.999600335
   0.999351149   0.499714148   0.499526072
   0.999364131   0.249940271   0.249565036
   0.249942937   0.999429181   0.750933424
   0.001221228   0.000794993   0.500385027
   0.000685650   0.499229451   0.000145247
   0.499295301   0.000408693   0.999730156
   0.499081163   0.999997161   0.500690002
   0.499677337   0.500017399   0.999759011
   0.499768158   0.499659105   0.500016684
   0.001058468   0.248850853   0.749931831
   0.000442129   0.750049039   0.250250731
   0.000551488   0.750954588   0.750195952
   0.499759755   0.249335735   0.250060757
   0.499125009   0.249563123   0.749951767
   0.499624195   0.750641131   0.250014527
   0.499269031   0.750380179   0.749952069
   0.247593839   0.001176322   0.249623657
   0.248266696   0.499149775   0.250804468
   0.247916806   0.499726749   0.749183120
   0.752135335   0.000668103   0.249475185
   0.751387791   0.000350826   0.750225301
   0.751698338   0.499297215   0.250625843
   0.751399997   0.499640155   0.749403655
   0.248135591   0.248514837   0.999908660
   0.248143903   0.250097081   0.499905556
   0.248518341   0.751458251   0.999400393
   0.248697088   0.750095788   0.500496234
   0.751896728   0.249341633   0.000476544
   0.752128709   0.249993151   0.499481070
   0.751228841   0.750360232   0.000054830
   0.751473035   0.750041890   0.500044050
   0.249948494   0.249488137   0.249972940
   0.248611490   0.251372961   0.750552117
   0.248913163   0.750379128   0.249995824
   0.248932621   0.748809804   0.750512591
   0.750204360   0.249884697   0.249930251
   0.750970185   0.249621556   0.750009233
   0.751198924   0.750030491   0.249961466
   0.750717704   0.750392761   0.749995368
   0.249107223   0.000497406   0.001464989
   0.249131319   0.999969527   0.498640463
   0.248967087   0.499820480   0.999721122
   0.250074933   0.499398306   0.499946096
   0.750539282   0.000741021   0.000269363
   0.751016573   0.000256223   0.500146854
   0.751198262   0.499715309   0.000237561
   0.750011865   0.499313424   0.499306104
   0.000486682   0.250575783   0.999514541
   0.999979035   0.248371630   0.499905509
   0.000729162   0.749223008   0.999955379
   0.000181506   0.752274427   0.499534083
   0.499772635   0.248877603   0.000448690
   0.499732219   0.250137770   0.499651994
   0.499674764   0.751304280   0.999691651
   0.499662361   0.749775321   0.500360071
   0.000451848   0.000015620   0.251039331
   0.999113757   0.000586977   0.749006339
   0.999995480   0.500093606   0.248161032
   0.000573690   0.499538777   0.752258399
   0.499580671   0.000749558   0.249117552
   0.501308455   0.000115060   0.750847503
   0.500164503   0.499271395   0.250606087
   0.499553309   0.499991858   0.749422298
Mg28Ni4O32
   1.00000000
   8.456862283   0.000015931   0.000190057
   0.000015931   8.456110731  -0.000229743
   0.000190057  -0.000229744   8.455964356
  Ni  Mg  O
  4  28  32
Direct configuration=     5
   0.000681144   0.000583013   0.999560314
   0.999206019   0.499690282   0.499522581
   0.999241460   0.249815795   0.249337874
   0.249873817   0.999331514   0.751073628
   0.001436162   0.000917471   0.500424594
   0.001073967   0.499134465   0.999991270
   0.499312147   0.000696069   0.999949683
   0.498990325   0.000152514   0.500586364
   0.499379941   0.499854813   0.999749169
   0.499639758   0.499393455   0.499949974
   0.001198444   0.248630172   0.750001947
   0.000703488   0.750170544   0.250210628
   0.000538364   0.751136054   0.750375001
   0.499610574   0.249050775   0.250064954
   0.499022149   0.249621782   0.749968295
   0.499371780   0.750944525   0.250009289
   0.499221914   0.750307908   0.749968165
   0.246981047   0.001465848   0.249717415
   0.247944878   0.498926399   0.250701440
   0.247227797   0.499555708   0.749273892
   0.752664577   0.000795386   0.249531644
   0.751782541   0.000582148   0.750135675
   0.751996413   0.499136197   0.250523376
   0.751909832   0.499379239   0.749485649
   0.247741510   0.248511556   0.999991877
   0.247772242   0.250051380   0.499758816
   0.247974789   0.751477687   0.999527497
   0.248282400   0.750182810   0.500364465
   0.752303589   0.249268582   0.000428655
   0.752543481   0.249607285   0.499473687
   0.751723965   0.750377954   0.000080897
   0.751921285   0.750436074   0.500036049
   0.249392011   0.249474970   0.250007015
   0.248196125   0.251219387   0.750579288
   0.248586530   0.750373766   0.250060519
   0.248551773   0.748927766   0.750517921
   0.750735048   0.249858175   0.249912633
   0.751358948   0.249679102   0.749962983
   0.751578527   0.750029286   0.249964753
   0.751062718   0.750336083   0.749956573
   0.248455011   0.000650732   0.001492234
   0.249082447   0.000011864   0.498814440
   0.248946533   0.499729064   0.999841272
   0.249443265   0.499245328   0.499819819
   0.751233247   0.000906688   0.000456373
   0.751171184   0.000341056   0.500037641
   0.751326617   0.499624193   0.000318949
   0.750581881   0.499161654   0.499145382
   0.000650459   0.250235362   0.999579831
   0.000100798   0.248306341   0.499719563
   0.000898981   0.749588117   0.999841236
   0.000313513   0.752469675   0.499615634
   0.499631121   0.248627242   0.000335270
   0.499541050   0.249947825   0.499819650
   0.499539627   0.751667360   0.999535254
   0.499491111   0.749874890   0.500562947
   0.000452463   0.000328355   0.250966344
   0.999399662   0.000687336   0.749043800
   0.999969929   0.499871790   0.248116559
   0.000505885   0.499477625   0.752221825
   0.499552618   0.000761521   0.249003535
   0.501192628   0.000111108   0.751000494
   0.500229070   0.499264303   0.250644619
   0.499557420   0.500026632   0.749330883
Mg28Ni4O32
   1.00000000
   8.463250710   0.000022884   0.000263325
   0.000022884   8.462211393  -0.000321045
   0.000263325  -0.000321045   8.462010498
  Ni  Mg  O
  4  28  32
Direct configuration=     6
   0.000608374   0.000577664   0.999570172
   0.999119487   0.499695840   0.499555477
   0.999185669   0.249701977   0.249145194
   0.249820531   0.999297674   0.751111199
   0.001525583   0.000932853   0.500426766
   0.001355850   0.499141959   0.999823865
   0.499447941   0.000916522   0.000222915
   0.499011028   0.000294592   0.500392779
   0.499126321   0.499706669   0.999772550
   0.499550536   0.499176693   0.499875118
   0.001204228   0.248532798   0.750067490
   0.000890882   0.750285844   0.250134644
   0.000428590   0.751223886   0.750517735
   0.499496810   0.248846336   0.250059452
   0.499017988   0.249759367   0.749994130
   0.499164612   0.751181758   0.249996471
   0.499291752   0.750154967   0.750005476
   0.246648427   0.001613180   0.249880104
   0.247851174   0.498799346   0.250493043
   0.246796179   0.499422456   0.749447740
   0.752953682   0.000805530   0.249662774
   0.751978757   0.000765460   0.750031367
   0.752055328   0.499091752   0.250297682
   0.752250838   0.499157150   0.749650550
   0.247598502   0.248703606   0.000094312
   0.247612514   0.249986284   0.499633218
   0.247662024   0.751321097   0.999762811
   0.248037656   0.750241108   0.500171655
   0.752473697   0.249313203   0.000301598
   0.752691460   0.249199132   0.499532323
   0.752056316   0.750339004   0.000113583
   0.752173477   0.750841568   0.500009276
   0.248779850   0.249538653   0.250034692
   0.247941116   0.250826897   0.750532439
   0.248351902   0.750325854   0.250121947
   0.248242085   0.749227779   0.750462495
   0.751268584   0.249804498   0.249893963
   0.751683523   0.249766510   0.749910227
   0.751859545   0.750072108   0.249971152
   0.751407313   0.750245488   0.749924316
   0.247831199   0.000749108   0.001320154
   0.249161780   0.000086292   0.499215436
   0.249053218   0.499639173   0.000023880
   0.248644307   0.499157477   0.499684646
   0.751989562   0.000987726   0.000599617
   0.751216270   0.000421686   0.499900622
   0.751323910   0.499541340   0.000344781
   0.751269044   0.499079355   0.499092153
   0.000755846   0.249806298   0.999691235
   0.000238098   0.248467832   0.499540120
   0.000979070   0.750083165   0.999739740
   0.000435444   0.752369272   0.499774682
   0.499495214   0.248544141   0.000155798
   0.499362775   0.249694389   0.500038042
   0.499418945   0.751871203   0.999448794
   0.499344601   0.750030574   0.500694320
   0.000392831   0.000660524   0.250767511
   0.999876513   0.000716067   0.749207868
   0.999980402   0.499628044   0.248298615
   0.000343935   0.499464840   0.751862938
   0.499565541   0.000693003   0.249039549
   0.500880619   0.000133345   0.751048732
   0.500223157   0.499330703   0.250580209
   0.499597588   0.500009376   0.749325860
Mg28Ni4O32
   1.00000000
   8.468959366   0.000029519   0.000329170
   0.000029519   8.467657459  -0.000403645
   0.000329170  -0.000403645   8.467406779
  Ni  Mg  O
  4  28  32
Direct configuration=     7
   0.000505106   0.000543046   0.999606676
   0.999099076   0.499711653   0.499570452
   0.999193459   0.249665132   0.249064534
   0.249815709   0.999320018   0.751073960
   0.001510691   0.000861618   0.500416321
   0.001389669   0.499221137   0.999743807
   0.499617628   0.000956727   0.000397895
   0.499090775   0.000336299   0.500246800
   0.499045911   0.499664813   0.999808686
   0.499546197   0.499117217   0.499829016
   0.001118877   0.248552172   0.750078227
   0.000906766   0.750331525   0.250073356
   0.000293354   0.751224062   0.750543236
   0.499475242   0.248806775   0.250048862
   0.499070873   0.249892544   0.750014305
   0.499099214   0.751255487   0.249982309
   0.499424905   0.750003944   0.750050798
   0.246669293   0.001587591   0.250019734
   0.247970571   0.498799813   0.250326220
   0.246769772   0.499391477   0.749561290
   0.752946236   0.000701073   0.249779429
   0.751912169   0.000810964   0.749989348
   0.751896802   0.499176953   0.250073096
   0.752296629   0.499078500   0.749783619
   0.247721253   0.248926754   0.000157639
   0.247662838   0.249936122   0.499604630
   0.247720466   0.751140566   0.999971160
   0.248047241   0.750231036   0.500049849
   0.752389380   0.249444972   0.000171885
   0.752577602   0.248982965   0.499602481
   0.752088124   0.750274293   0.000144350
   0.752144611   0.751042679   0.499972698
   0.248417471   0.249626516   0.250033164
   0.247926944   0.250432302   0.750457689
   0.248272595   0.750284702   0.250144787
   0.248104079   0.749508525   0.750403031
   0.751525078   0.249725821   0.249872651
   0.751832436   0.249803555   0.749877675
   0.751958815   0.750163906   0.249973122
   0.751631702   0.750199691   0.749921795
   0.247503150   0.000761382   0.001100619
   0.249300975   0.000165352   0.499597713
   0.249182026   0.499583867   0.000166275
   0.248034682   0.499154915   0.499606909
   0.752479962   0.000971702   0.000619798
   0.751178947   0.000476734   0.499817974
   0.751247769   0.499489268   0.000293605
   0.751752979   0.499077697   0.499156413
   0.000763876   0.249550395   0.999754588
   0.000317561   0.248707880   0.499459053
   0.000953724   0.750413115   0.999714941
   0.000490476   0.752118255   0.499910500
   0.499422594   0.248644186   0.000026871
   0.499275983   0.249507558   0.500170920
   0.499357607   0.751857055   0.999490201
   0.499284961   0.750153611   0.500678522
   0.000327389   0.000837390   0.250607482
   0.000287673   0.000682911   0.749362014
   0.000035918   0.499499168   0.248519312
   0.000193201   0.499481947   0.751454926
   0.499588112   0.000621893   0.249190466
   0.500586371   0.000193928   0.751008612
   0.500128168   0.499394912   0.250462226
   0.499620340   0.499919935   0.749389475
Mg28Ni4O32
   1.00000000
   8.478213398   0.000040761   0.000436397
   0.000040761   8.476477892  -0.000538455
   0.000436397  -0.000538456   8.476144619
  Ni  Mg  O
  4  28  32
Direct configuration=     8
   0.000367666   0.000492201   0.999665517
   0.999108102   0.499727537   0.499533796
   0.999242055   0.249708183   0.249057594
   0.249864988   0.999387661   0.750991264
   0.001441867   0.000699045   0.500415290
   0.001174009   0.499382151   0.999740738
   0.499865571   0.000822300   0.000515487
   0.499220782   0.000274147   0.500143592
   0.499121071   0.499735138   0.999863038
   0.499631233   0.499201072   0.499794782
   0.000952425   0.248652963   0.750015929
   0.000746154   0.750312729   0.250018559
   0.000105441   0.751174725   0.750444137
   0.499544582   0.248911405   0.250031688
   0.499161363   0.250048128   0.750032452
   0.499152875   0.751201233   0.249965243
   0.499652278   0.749811762   0.750125105
   0.246989188   0.001408029   0.250174780
   0.248296355   0.498907847   0.250184559
   0.247096172   0.499456622   0.749599490
   0.752703020   0.000449800   0.249899661
   0.751576942   0.000728463   0.750022241
   0.751501078   0.499418829   0.249784180
   0.752090258   0.499117367   0.749893698
   0.248116142   0.249197131   0.000191985
   0.247877570   0.249884684   0.499684159
   0.248173040   0.750939946   0.000206397
   0.248290483   0.750135101   0.499997529
   0.752065882   0.249704949   0.000004099
   0.752217272   0.248905845   0.499684687
   0.751842113   0.750173349   0.000188578
   0.751847714   0.751082047   0.499910381
   0.248201085   0.249747358   0.249993008
   0.248127607   0.249941985   0.750348284
   0.248288748   0.750264287   0.250133882
   0.248068534   0.749811556   0.750347496
   0.751553785   0.249577031   0.249827562
   0.751882837   0.249762873   0.749855541
   0.751938125   0.750357794   0.249965638
   0.751834265   0.750218271   0.749957994
   0.247348528   0.000699975   0.000821114
   0.249527284   0.000280865   0.500047038
   0.249331879   0.499540238   0.000296014
   0.247390491   0.499223311   0.499566474
   0.752888101   0.000868581   0.000504657
   0.751084938   0.000534385   0.499784355
   0.751110682   0.499442752   0.000135756
   0.752190231   0.499139911   0.499346508
   0.000681416   0.249442066   0.999752523
   0.000354898   0.249047676   0.499453938
   0.000827775   0.750629395   0.999779748
   0.000492623   0.751710720   0.500042892
   0.499390645   0.248946421   0.999936346
   0.499250893   0.249345668   0.500228994
   0.499335091   0.751643767   0.999696634
   0.499294038   0.750259733   0.500493482
   0.000259262   0.000900675   0.250502014
   0.000750486   0.000594065   0.749504414
   0.000159595   0.499465184   0.248759944
   0.000027979   0.499513220   0.750945577
   0.499606171   0.000561596   0.249492928
   0.500273162   0.000327828   0.750906976
   0.499891679   0.499444020   0.250270226
   0.499601478   0.499704407   0.749521407
Mg28Ni4O32
   1.00000000
   8.488966006   0.000054358   0.000561784
   0.000054358   8.486717167  -0.000696293
   0.000561783  -0.000696294   8.486285565
  Ni  Mg  O
  4  28  32
Direct configuration=     9
   0.000294883   0.000463125   0.999710546
   0.999145205   0.499723640   0.499417024
   0.999312541   0.249862102   0.249171212
   0.249969943   0.999474846   0.750916752
   0.001356709   0.000506855   0.500445326
   0.000698891   0.499563020   0.999866932
   0.500061190   0.000500431   0.000449844
   0.499325744   0.000083090   0.500210906
   0.499396900   0.499943874   0.999906303
   0.499805241   0.499458941   0.499799727
   0.000788831   0.248802617   0.749864361
   0.000409641   0.750195714   0.250019050
   0.999980595   0.751089843   0.750203483
   0.499717496   0.249175469   0.250018183
   0.499233337   0.250114044   0.750031246
   0.499359848   0.750980526   0.249963491
   0.499865803   0.749695415   0.750197221
   0.247555120   0.001111082   0.250244808
   0.248704688   0.499111317   0.250198580
   0.247746585   0.499636989   0.749467382
   0.752270378   0.000142611   0.249933350
   0.751046193   0.000492529   0.750166713
   0.751008096   0.499744421   0.249598987
   0.751633912   0.499319477   0.749863737
   0.248667092   0.249331216   0.000145404
   0.248185734   0.249865836   0.499898261
   0.248948762   0.750873486   0.000313146
   0.248729937   0.749959093   0.500118345
   0.751591707   0.249987411   0.999890556
   0.751724021   0.249120502   0.499716878
   0.751324840   0.750094053   0.000221659
   0.751332588   0.750813914   0.499850574
   0.248394711   0.249822893   0.249916173
   0.248545289   0.249663972   0.750266637
   0.248450651   0.750311008   0.250080918
   0.248248453   0.749904954   0.750353051
   0.751155866   0.249420933   0.249763011
   0.751729469   0.249601359   0.749865696
   0.751722746   0.750581725   0.249943277
   0.751834233   0.750346541   0.750038570
   0.247607917   0.000558501   0.000674454
   0.249733791   0.000368474   0.500268400
   0.249394795   0.499553454   0.000290436
   0.247158658   0.499359618   0.499625628
   0.752857112   0.000693760   0.000233060
   0.750975804   0.000548241   0.499876789
   0.750971134   0.499449360   0.999909014
   0.752207753   0.499266887   0.499593952
   0.000504730   0.249692184   0.999627273
   0.000285171   0.249281314   0.499574327
   0.000625066   0.750468511   0.999962101
   0.000396182   0.751368974   0.500055178
   0.499462110   0.249358119   0.999993176
   0.499350972   0.249373661   0.500100693
   0.499411454   0.751259010   0.000041218
   0.499421868   0.750227857   0.500156875
   0.000249960   0.000723192   0.250603415
   0.000959760   0.000481275   0.749498569
   0.000289677   0.499626609   0.248811711
   0.999969201   0.499536259   0.750670839
   0.499595969   0.000573330   0.249814934
   0.500191844   0.000477259   0.750807533
   0.499590732   0.499426230   0.250112925
   0.499514472   0.499437047   0.749650179
Mg28Ni4O32
   1.00000000
   8.497142399   0.000065310   0.000658610
   0.000065310   8.494491505  -0.000818532
   0.000658608  -0.000818532   8.493982307
  Ni  Mg  O
  4  28  32
Direct configuration=     10
   0.000345598   0.000471876   0.999716500
   0.999199688   0.499700092   0.499276950
   0.999375985   0.250058150   0.249359780
   0.250075895   0.999541161   0.750894166
   0.001284800   0.000380040   0.500493419
   0.000204959   0.499679186   0.000052505
   0.500088900   0.000160855   0.000219997
   0.499352617   0.999866122   0.500438146
   0.499733403   0.500178378   0.999913803
   0.499978631   0.499759579   0.499840227
   0.000712625   0.248942747   0.749696241
   0.000072805   0.750034420   0.250080655
   0.000008917   0.750991420   0.749941752
   0.499908923   0.249474058   0.250018790
   0.499254304   0.250029740   0.750006113
   0.499618107   0.750692511   0.249991987
   0.499942718   0.749736940   0.750225139
   0.248112704   0.000835258   0.250184809
   0.248977113   0.499321071   0.250367072
   0.248401351   0.499848325   0.749235929
   0.751845673   0.999957244   0.249857408
   0.750593580   0.000217523   0.750349498
   0.750669408   0.499978172   0.249636598
   0.751151758   0.499590215   0.749684010
   0.249100156   0.249253997   0.000028467
   0.248448527   0.249892315   0.500145877
   0.249644984   0.750975928   0.000217332
   0.249143729   0.749793500   0.500367359
   0.751192965   0.250130629   0.999891629
   0.751333335   0.249543207   0.499675837
   0.750797499   0.750090490   0.000214140
   0.750857645   0.750346841   0.499832882
   0.248959171   0.249800511   0.249847356
   0.249006982   0.249786784   0.750257725
   0.248723490   0.750411454   0.250023313
   0.248636540   0.749703719   0.750424765
   0.750477726   0.249369778   0.249705455
   0.751389910   0.249395949   0.749903946
   0.751355972   0.750688229   0.249914652
   0.751537449   0.750520081   0.750124379
   0.248244335   0.000393202   0.000760032
   0.249815709   0.000357228   0.500113196
   0.249340768   0.499641274   0.000113238
   0.247574664   0.499509094   0.499775815
   0.752295021   0.000518252   0.999930484
   0.750891148   0.000481061   0.500076613
   0.750869517   0.499540926   0.999734824
   0.751680832   0.499418294   0.499752256
   0.000309086   0.250218063   0.999441472
   0.000122302   0.249269871   0.499758985
   0.000434071   0.749963744   0.000181389
   0.000227633   0.751275461   0.499912806
   0.499633892   0.249661247   0.000190109
   0.499548086   0.249642478   0.499827400
   0.499591184   0.750881617   0.000347221
   0.499631424   0.750020814   0.499848651
   0.000314163   0.000372570   0.250887292
   0.000762213   0.000394889   0.749332567
   0.000316003   0.499922546   0.248623275
   0.000063868   0.499543154   0.750803757
   0.499568367   0.000643615   0.249964508
   0.500429666   0.000525779   0.750781114
   0.499409700   0.499364474   0.250101440
   0.499409806   0.499291854   0.749684948
Mg28Ni4O32
   1.00000000
   8.499981784   0.000069716   0.000694567
   0.000069717   8.497177574  -0.000864477
   0.000694565  -0.000864477   8.496638251
  Ni  Mg  O
  4  28  32
Direct configuration=     11
   0.000451854   0.000490003   0.999700578
   0.999251844   0.499683347   0.499219718
   0.999413858   0.250164150   0.249494016
   0.250115239   0.999565286   0.750907916