********************************************************************************
*                       GENERAL UTILITY LATTICE PROGRAM                        *
*                                 Julian Gale                                  *
*                       Curtin Institute for Computation                       *
*                    School of Molecular and Life Sciences                     *
*                    Curtin University, Western Australia                      *
********************************************************************************
* Version = 6.4.0 * Last modified =  22nd December 2025                        *
********************************************************************************
*  optimise     - perform optimisation run                                     *
*  conp         - constant pressure calculation                                *
********************************************************************************
*  Al/Fe substitutions in LaFeO3  perovskite - configuration 1                 *
********************************************************************************


  Job Started  at 17:31.32  5th April      2026                               

  Number of CPUs =     1


  Total number of configurations input =      1

********************************************************************************
*  Input for Configuration =   1                                               *
********************************************************************************

  Formula = La8AlFe7O24

  Number of irreducible atoms/shells =      80


  Total number atoms/shells =      80

  Dimensionality = 3               :  Bulk   



  Cartesian lattice vectors (Angstroms) :

        7.400000    0.000000    0.000000
        0.000000    7.400000    0.000000
        0.000000    0.000000    7.400000

  Cell parameters (Angstroms/Degrees):

  a =       7.4000    alpha =  90.0000
  b =       7.4000    beta  =  90.0000
  c =       7.4000    gamma =  90.0000

  Initial cell volume =         405.224000 Angs**3

  Temperature of configuration =   0.00     K 

  Pressure of configuration =         0.000 GPa 

  Fractional coordinates of asymmetric unit :

--------------------------------------------------------------------------------
   No.  Atomic       x           y          z         Charge      Occupancy
        Label      (Frac)      (Frac)     (Frac)        (e)         (Frac)  
--------------------------------------------------------------------------------
      1 La    c    0.000000    0.000000    0.000000     5.14900    1.000000    
      2 La    c    0.000000 *  0.000000 *  0.500000 *   5.14900    1.000000    
      3 La    c    0.000000 *  0.500000 *  0.000000 *   5.14900    1.000000    
      4 La    c    0.000000 *  0.500000 *  0.500000 *   5.14900    1.000000    
      5 La    c    0.500000 *  0.000000 *  0.000000 *   5.14900    1.000000    
      6 La    c    0.500000 *  0.000000 *  0.500000 *   5.14900    1.000000    
      7 La    c    0.500000 *  0.500000 *  0.000000 *   5.14900    1.000000    
      8 La    c    0.500000 *  0.500000 *  0.500000 *   5.14900    1.000000    
      9 Al    c    0.250000 *  0.250000 *  0.250000 *   0.04300    1.000000    
     10 Fe    c    0.250000 *  0.250000 *  0.750000 *   1.97100    1.000000    
     11 Fe    c    0.250000 *  0.750000 *  0.250000 *   1.97100    1.000000    
     12 Fe    c    0.250000 *  0.750000 *  0.750000 *   1.97100    1.000000    
     13 Fe    c    0.750000 *  0.250000 *  0.250000 *   1.97100    1.000000    
     14 Fe    c    0.750000 *  0.250000 *  0.750000 *   1.97100    1.000000    
     15 Fe    c    0.750000 *  0.750000 *  0.250000 *   1.97100    1.000000    
     16 Fe    c    0.750000 *  0.750000 *  0.750000 *   1.97100    1.000000    
     17 O     c    0.250000 *  0.250000 *  0.000000 *   0.51300    1.000000    
     18 O     c    0.250000 *  0.250000 *  0.500000 *   0.51300    1.000000    
     19 O     c    0.250000 *  0.750000 *  0.000000 *   0.51300    1.000000    
     20 O     c    0.250000 *  0.750000 *  0.500000 *   0.51300    1.000000    
     21 O     c    0.750000 *  0.250000 *  0.000000 *   0.51300    1.000000    
     22 O     c    0.750000 *  0.250000 *  0.500000 *   0.51300    1.000000    
     23 O     c    0.750000 *  0.750000 *  0.000000 *   0.51300    1.000000    
     24 O     c    0.750000 *  0.750000 *  0.500000 *   0.51300    1.000000    
     25 O     c    0.000000 *  0.250000 *  0.250000 *   0.51300    1.000000    
     26 O     c    0.000000 *  0.250000 *  0.750000 *   0.51300    1.000000    
     27 O     c    0.000000 *  0.750000 *  0.250000 *   0.51300    1.000000    
     28 O     c    0.000000 *  0.750000 *  0.750000 *   0.51300    1.000000    
     29 O     c    0.500000 *  0.250000 *  0.250000 *   0.51300    1.000000    
     30 O     c    0.500000 *  0.250000 *  0.750000 *   0.51300    1.000000    
     31 O     c    0.500000 *  0.750000 *  0.250000 *   0.51300    1.000000    
     32 O     c    0.500000 *  0.750000 *  0.750000 *   0.51300    1.000000    
     33 O     c    0.250000 *  0.000000 *  0.250000 *   0.51300    1.000000    
     34 O     c    0.250000 *  0.000000 *  0.750000 *   0.51300    1.000000    
     35 O     c    0.250000 *  0.500000 *  0.250000 *   0.51300    1.000000    
     36 O     c    0.250000 *  0.500000 *  0.750000 *   0.51300    1.000000    
     37 O     c    0.750000 *  0.000000 *  0.250000 *   0.51300    1.000000    
     38 O     c    0.750000 *  0.000000 *  0.750000 *   0.51300    1.000000    
     39 O     c    0.750000 *  0.500000 *  0.250000 *   0.51300    1.000000    
     40 O     c    0.750000 *  0.500000 *  0.750000 *   0.51300    1.000000    
     41 La    s    0.000000 *  0.000000 *  0.000000 *  -2.14900    1.000000    
     42 La    s    0.000000 *  0.000000 *  0.500000 *  -2.14900    1.000000    
     43 La    s    0.000000 *  0.500000 *  0.000000 *  -2.14900    1.000000    
     44 La    s    0.000000 *  0.500000 *  0.500000 *  -2.14900    1.000000    
     45 La    s    0.500000 *  0.000000 *  0.000000 *  -2.14900    1.000000    
     46 La    s    0.500000 *  0.000000 *  0.500000 *  -2.14900    1.000000    
     47 La    s    0.500000 *  0.500000 *  0.000000 *  -2.14900    1.000000    
     48 La    s    0.500000 *  0.500000 *  0.500000 *  -2.14900    1.000000    
     49 Al    s    0.250000 *  0.250000 *  0.250000 *   2.95700    1.000000    
     50 Fe    s    0.250000 *  0.250000 *  0.750000 *   1.02900    1.000000    
     51 Fe    s    0.250000 *  0.750000 *  0.250000 *   1.02900    1.000000    
     52 Fe    s    0.250000 *  0.750000 *  0.750000 *   1.02900    1.000000    
     53 Fe    s    0.750000 *  0.250000 *  0.250000 *   1.02900    1.000000    
     54 Fe    s    0.750000 *  0.250000 *  0.750000 *   1.02900    1.000000    
     55 Fe    s    0.750000 *  0.750000 *  0.250000 *   1.02900    1.000000    
     56 Fe    s    0.750000 *  0.750000 *  0.750000 *   1.02900    1.000000    
     57 O     s    0.250000 *  0.250000 *  0.000000 *  -2.51300    1.000000    
     58 O     s    0.250000 *  0.250000 *  0.500000 *  -2.51300    1.000000    
     59 O     s    0.250000 *  0.750000 *  0.000000 *  -2.51300    1.000000    
     60 O     s    0.250000 *  0.750000 *  0.500000 *  -2.51300    1.000000    
     61 O     s    0.750000 *  0.250000 *  0.000000 *  -2.51300    1.000000    
     62 O     s    0.750000 *  0.250000 *  0.500000 *  -2.51300    1.000000    
     63 O     s    0.750000 *  0.750000 *  0.000000 *  -2.51300    1.000000    
     64 O     s    0.750000 *  0.750000 *  0.500000 *  -2.51300    1.000000    
     65 O     s    0.000000 *  0.250000 *  0.250000 *  -2.51300    1.000000    
     66 O     s    0.000000 *  0.250000 *  0.750000 *  -2.51300    1.000000    
     67 O     s    0.000000 *  0.750000 *  0.250000 *  -2.51300    1.000000    
     68 O     s    0.000000 *  0.750000 *  0.750000 *  -2.51300    1.000000    
     69 O     s    0.500000 *  0.250000 *  0.250000 *  -2.51300    1.000000    
     70 O     s    0.500000 *  0.250000 *  0.750000 *  -2.51300    1.000000    
     71 O     s    0.500000 *  0.750000 *  0.250000 *  -2.51300    1.000000    
     72 O     s    0.500000 *  0.750000 *  0.750000 *  -2.51300    1.000000    
     73 O     s    0.250000 *  0.000000 *  0.250000 *  -2.51300    1.000000    
     74 O     s    0.250000 *  0.000000 *  0.750000 *  -2.51300    1.000000    
     75 O     s    0.250000 *  0.500000 *  0.250000 *  -2.51300    1.000000    
     76 O     s    0.250000 *  0.500000 *  0.750000 *  -2.51300    1.000000    
     77 O     s    0.750000 *  0.000000 *  0.250000 *  -2.51300    1.000000    
     78 O     s    0.750000 *  0.000000 *  0.750000 *  -2.51300    1.000000    
     79 O     s    0.750000 *  0.500000 *  0.250000 *  -2.51300    1.000000    
     80 O     s    0.750000 *  0.500000 *  0.750000 *  -2.51300    1.000000    
--------------------------------------------------------------------------------



********************************************************************************
*  General input information                                                   *
********************************************************************************

  Species output for all configurations : 

--------------------------------------------------------------------------------
  Species    Type    Atomic    Atomic    Charge       Radii (Angs)     Library
                     Number     Mass       (e)     Cova   Ionic  VDW   Symbol
--------------------------------------------------------------------------------
    Fe       Core       26      55.85   1.971000   1.340  0.000  2.000          
    Fe       Shell      26       0.00   1.029000   1.340  0.000  2.000          
    Al       Core       13      26.98   0.043000   1.350  0.000  2.050          
    Al       Shell      13       0.00   2.957000   1.350  0.000  2.050          
    La       Core       57     138.91   5.149000   1.870  0.000  2.790          
    La       Shell      57       0.00  -2.149000   1.870  0.000  2.790          
    O        Core        8      16.00   0.513000   0.730  0.000  1.360          
    O        Shell       8       0.00  -2.513000   0.730  0.000  1.360          
--------------------------------------------------------------------------------


  Lattice summation method               =    Ewald          (3-D)
                                         =    Parry          (2-D)
                                         =    Saunders et al (1-D)
  Accuracy factor for lattice sums       =   12.000


  Analytic derivatives to be used

  Time limit = Infinity

  Maximum range for interatomic potentials =    100000.000000 Angstroms

  General interatomic potentials :

--------------------------------------------------------------------------------
Atom  Types   Potential      Parameter       Value         Units   Cutoffs(Ang)
  1     2                                                            Min /  Max 
--------------------------------------------------------------------------------
O    s Fe   s Buckingham    Buckingham A     3219.3350    eV        0.000 10.000
                            Buckingham rho  0.26410000    Ang       
                            Buckingham C     0.0000000    eV*Ang^6  
--------------------------------------------------------------------------------
O    s Al   s Buckingham    Buckingham A     2409.5050    eV        0.000 10.000
                            Buckingham rho  0.26490000    Ang       
                            Buckingham C     0.0000000    eV*Ang^6  
--------------------------------------------------------------------------------
O    s La   s Buckingham    Buckingham A     5436.8270    eV        0.000 10.000
                            Buckingham rho  0.29390000    Ang       
                            Buckingham C     0.0000000    eV*Ang^6  
--------------------------------------------------------------------------------
O    s O    s Buckingham    Buckingham A     25.410000    eV        0.000 12.000
                            Buckingham rho  0.69370000    Ang       
                            Buckingham C     32.320000    eV*Ang^6  
--------------------------------------------------------------------------------
Fe   c Fe   s Spring (c-s)  Spring k 2       179.58000    eV*Ang^-2 0.000  0.800
                            Spring k 4       0.0000000    eV*Ang^-4 
--------------------------------------------------------------------------------
Al   c Al   s Spring (c-s)  Spring k 2       403.98000    eV*Ang^-2 0.000  0.800
                            Spring k 4       0.0000000    eV*Ang^-4 
--------------------------------------------------------------------------------
La   c La   s Spring (c-s)  Spring k 2       173.90000    eV*Ang^-2 0.000  0.800
                            Spring k 4       0.0000000    eV*Ang^-4 
--------------------------------------------------------------------------------
O    c O    s Spring (c-s)  Spring k 2       20.530000    eV*Ang^-2 0.000  0.800
                            Spring k 4       0.0000000    eV*Ang^-4 
--------------------------------------------------------------------------------

********************************************************************************
*  Output for configuration   1                                                *
********************************************************************************


  Components of energy : 

--------------------------------------------------------------------------------
  Interatomic potentials     =         271.42922113 eV    
  Monopole - monopole (real) =        -714.63043649 eV    
  Monopole - monopole (recip)=        -672.57146413 eV    
  Monopole - monopole (total)=       -1387.20190062 eV    
--------------------------------------------------------------------------------
  Total lattice energy       =       -1115.77267949 eV    
--------------------------------------------------------------------------------
  Total lattice energy       =         -107655.0074 kJ/(mole unit cells)
--------------------------------------------------------------------------------


  Number of variables =      243

  Maximum number of calculations  =          1000
  Maximum Hessian update interval =            10
  Maximum step size               =   1.000000000
  Maximum parameter tolerance     =   0.000010000
  Maximum function  tolerance     =   0.000010000
  Maximum gradient  tolerance     =   0.001000000
  Maximum gradient  component     =   0.010000000

  Symmetry not applied to optimisation

  Cell parameters to be optimised using strains

  Newton-Raphson optimiser to be used

  BFGS hessian update to be used

  Hessian eigenvalue shifts to be used to ensure all values are positive

  Lower half triangular hessian to be used

  Start of bulk optimisation :

  Cycle:      0 Energy:     -1115.772679  Gnorm:      1.132144  CPU:    0.038
  ** Hessian lowest eigenvalue is negative =  -1.734E+01
  ** Hessian calculated **
  Cycle:      1 Energy:     -1127.889455  Gnorm:      0.051550  CPU:    0.067
  ** Hessian lowest eigenvalue is negative =  -4.903E+01
  ** Hessian calculated **
  Cycle:      2 Energy:     -1127.923144  Gnorm:      0.001368  CPU:    0.123
  Cycle:      3 Energy:     -1127.956974  Gnorm:      0.010315  CPU:    0.164
  Cycle:      4 Energy:     -1128.038311  Gnorm:      0.039919  CPU:    0.197
  Cycle:      5 Energy:     -1128.060101  Gnorm:      0.070847  CPU:    0.217
  Cycle:      6 Energy:     -1128.088935  Gnorm:      0.077328  CPU:    0.241
  Cycle:      7 Energy:     -1128.139489  Gnorm:      0.051769  CPU:    0.266
  Cycle:      8 Energy:     -1128.183642  Gnorm:      0.042802  CPU:    0.290
  Cycle:      9 Energy:     -1128.205819  Gnorm:      0.019677  CPU:    0.315
  Cycle:     10 Energy:     -1128.221083  Gnorm:      0.026650  CPU:    0.339
  Cycle:     11 Energy:     -1128.247235  Gnorm:      0.051974  CPU:    0.364
  ** Hessian lowest eigenvalue is negative =  -3.172E+01
  ** Hessian calculated **
  Cycle:     12 Energy:     -1128.286284  Gnorm:      0.011464  CPU:    0.420
  Cycle:     13 Energy:     -1128.324529  Gnorm:      0.008380  CPU:    0.453
  Cycle:     14 Energy:     -1128.348000  Gnorm:      0.018128  CPU:    0.478
  Cycle:     15 Energy:     -1128.444773  Gnorm:      0.077248  CPU:    0.507
  Cycle:     16 Energy:     -1128.446036  Gnorm:      0.087012  CPU:    0.532
  Cycle:     17 Energy:     -1128.451261  Gnorm:      0.087479  CPU:    0.552
  Cycle:     18 Energy:     -1128.465753  Gnorm:      0.056486  CPU:    0.581
  Cycle:     19 Energy:     -1128.506651  Gnorm:      0.055465  CPU:    0.610
  Cycle:     20 Energy:     -1128.555746  Gnorm:      0.042969  CPU:    0.639
  Cycle:     21 Energy:     -1128.600794  Gnorm:      0.026554  CPU:    0.668
  ** Hessian calculated **
  Cycle:     22 Energy:     -1128.612385  Gnorm:      0.002134  CPU:    0.725
  Cycle:     23 Energy:     -1128.612433  Gnorm:      0.000289  CPU:    0.745


  **** Optimisation achieved ****


  Final energy =   -1128.61243599 eV      
  Final Gnorm  =       0.00006933

  Components of energy : 

--------------------------------------------------------------------------------
  Interatomic potentials     =         189.04212791 eV    
  Monopole - monopole (real) =        -130.04515008 eV    
  Monopole - monopole (recip)=       -1187.60941382 eV    
  Monopole - monopole (total)=       -1317.65456390 eV    
--------------------------------------------------------------------------------
  Total lattice energy       =       -1128.61243599 eV    
--------------------------------------------------------------------------------
  Total lattice energy       =         -108893.8477 kJ/(mole unit cells)
--------------------------------------------------------------------------------

  Final fractional coordinates of atoms :

--------------------------------------------------------------------------------
   No.  Atomic        x           y          z          Radius
        Label       (Frac)      (Frac)     (Frac)       (Angs) 
--------------------------------------------------------------------------------
     1  La    c     0.000000    0.000000    0.000000    0.000000
     2  La    c     0.002477    0.001144    0.500335    0.000000
     3  La    c     0.001144    0.500335    0.002477    0.000000
     4  La    c     0.004838    0.499346    0.498852    0.000000
     5  La    c     0.500335    0.002477    0.001144    0.000000
     6  La    c     0.498852    0.004838    0.499346    0.000000
     7  La    c     0.499346    0.498852    0.004838    0.000000
     8  La    c     0.497822    0.497822    0.497822    0.000000
     9  Al    c     0.267664    0.267664    0.267664    0.000000
    10  Fe    c     0.268960    0.269320    0.768374    0.000000
    11  Fe    c     0.269320    0.768374    0.268960    0.000000
    12  Fe    c     0.269888    0.768923    0.769465    0.000000
    13  Fe    c     0.768374    0.268960    0.269320    0.000000
    14  Fe    c     0.769465    0.269888    0.768923    0.000000
    15  Fe    c     0.768923    0.769465    0.269888    0.000000
    16  Fe    c     0.768678    0.768678    0.768678    0.000000
    17  O     c     0.261444    0.294544    0.028460    0.000000
    18  O     c     0.293837    0.261788    0.518174    0.000000
    19  O     c     0.300544    0.760450    0.022898    0.000000
    20  O     c     0.256137    0.794637    0.521724    0.000000
    21  O     c     0.794949    0.255966    0.022907    0.000000
    22  O     c     0.761157    0.298983    0.521600    0.000000
    23  O     c     0.756422    0.801669    0.022892    0.000000
    24  O     c     0.801685    0.756607    0.522216    0.000000
    25  O     c     0.028460    0.261444    0.294544    0.000000
    26  O     c     0.022898    0.300544    0.760450    0.000000
    27  O     c     0.022907    0.794949    0.255966    0.000000
    28  O     c     0.022892    0.756422    0.801669    0.000000
    29  O     c     0.518174    0.293837    0.261788    0.000000
    30  O     c     0.521724    0.256137    0.794637    0.000000
    31  O     c     0.521600    0.761157    0.298983    0.000000
    32  O     c     0.522216    0.801685    0.756607    0.000000
    33  O     c     0.294544    0.028460    0.261444    0.000000
    34  O     c     0.255966    0.022907    0.794949    0.000000
    35  O     c     0.261788    0.518174    0.293837    0.000000
    36  O     c     0.298983    0.521600    0.761157    0.000000
    37  O     c     0.760450    0.022898    0.300544    0.000000
    38  O     c     0.801669    0.022892    0.756422    0.000000
    39  O     c     0.794637    0.521724    0.256137    0.000000
    40  O     c     0.756607    0.522216    0.801685    0.000000
    41  La    s     0.004387    0.004387    0.004387    0.000000
    42  La    s     0.006662    0.005286    0.504016    0.000000
    43  La    s     0.005286    0.504016    0.006662    0.000000
    44  La    s     0.008456    0.503697    0.502878    0.000000
    45  La    s     0.504016    0.006662    0.005286    0.000000
    46  La    s     0.502878    0.008456    0.503697    0.000000
    47  La    s     0.503697    0.502878    0.008456    0.000000
    48  La    s     0.502625    0.502625    0.502625    0.000000
    49  Al    s     0.267672    0.267672    0.267672    0.000000
    50  Fe    s     0.269291    0.269643    0.768930    0.000000
    51  Fe    s     0.269643    0.768930    0.269291    0.000000
    52  Fe    s     0.270167    0.769199    0.769692    0.000000
    53  Fe    s     0.768930    0.269291    0.269643    0.000000
    54  Fe    s     0.769692    0.270167    0.769199    0.000000
    55  Fe    s     0.769199    0.769692    0.270167    0.000000
    56  Fe    s     0.769010    0.769010    0.769010    0.000000
    57  O     s     0.263815    0.297767    0.031803    0.000000
    58  O     s     0.297538    0.263958    0.520239    0.000000
    59  O     s     0.303384    0.762556    0.024987    0.000000
    60  O     s     0.257652    0.797453    0.522691    0.000000
    61  O     s     0.797705    0.257824    0.025001    0.000000
    62  O     s     0.763119    0.301575    0.522582    0.000000
    63  O     s     0.758534    0.804782    0.024728    0.000000
    64  O     s     0.804402    0.758680    0.523510    0.000000
    65  O     s     0.031803    0.263815    0.297767    0.000000
    66  O     s     0.024987    0.303384    0.762556    0.000000
    67  O     s     0.025001    0.797705    0.257824    0.000000
    68  O     s     0.024728    0.758534    0.804782    0.000000
    69  O     s     0.520239    0.297538    0.263958    0.000000
    70  O     s     0.522691    0.257652    0.797453    0.000000
    71  O     s     0.522582    0.763119    0.301575    0.000000
    72  O     s     0.523510    0.804402    0.758680    0.000000
    73  O     s     0.297767    0.031803    0.263815    0.000000
    74  O     s     0.257824    0.025001    0.797705    0.000000
    75  O     s     0.263958    0.520239    0.297538    0.000000
    76  O     s     0.301575    0.522582    0.763119    0.000000
    77  O     s     0.762556    0.024987    0.303384    0.000000
    78  O     s     0.804782    0.024728    0.758534    0.000000
    79  O     s     0.797453    0.522691    0.257652    0.000000
    80  O     s     0.758680    0.523510    0.804402    0.000000
--------------------------------------------------------------------------------

  Final Cartesian lattice vectors (Angstroms) :

        7.864583    0.028633    0.028633
        0.028633    7.864583    0.028633
        0.028633    0.028633    7.864583


  Final cell parameters and derivatives :

--------------------------------------------------------------------------------
       a            7.864688 Angstrom     dE/de1(xx)    -0.002327 eV/strain
       b            7.864688 Angstrom     dE/de2(yy)    -0.002327 eV/strain
       c            7.864688 Angstrom     dE/de3(zz)    -0.002327 eV/strain
       alpha       89.582042 Degrees      dE/de4(yz)    -0.000815 eV/strain
       beta        89.582042 Degrees      dE/de5(xz)    -0.000815 eV/strain
       gamma       89.582042 Degrees      dE/de6(xy)    -0.000815 eV/strain
--------------------------------------------------------------------------------

  Primitive cell volume =           486.418325 Angs**3

  Density of cell =      6.531437 g/cm**3

  Non-primitive cell volume =           486.418325 Angs**3


  Final internal derivatives :

--------------------------------------------------------------------------------
   No.  Atomic          a             b             c           Radius
        Label          (eV)          (eV)          (eV)        (eV/Angs)
--------------------------------------------------------------------------------
      1 La    c       0.000000      0.000000      0.000000      0.000000
      2 La    c       0.000269      0.001011      0.000743      0.000000
      3 La    c       0.001011      0.000743      0.000270      0.000000
      4 La    c      -0.000038     -0.000494      0.002144      0.000000
      5 La    c       0.000743      0.000269      0.001011      0.000000
      6 La    c       0.002144     -0.000038     -0.000494      0.000000
      7 La    c      -0.000494      0.002144     -0.000038      0.000000
      8 La    c       0.000490      0.000490      0.000490      0.000000
      9 Al    c       0.000020      0.000020      0.000020      0.000000
     10 Fe    c       0.000818      0.000323      0.000498      0.000000
     11 Fe    c       0.000323      0.000498      0.000818      0.000000
     12 Fe    c       0.000031     -0.000222     -0.001103      0.000000
     13 Fe    c       0.000498      0.000818      0.000323      0.000000
     14 Fe    c      -0.001103      0.000031     -0.000222      0.000000
     15 Fe    c      -0.000222     -0.001103      0.000031      0.000000
     16 Fe    c       0.000607      0.000607      0.000607      0.000000
     17 O     c      -0.000205     -0.000059      0.000014      0.000000
     18 O     c      -0.000038      0.000285     -0.000157      0.000000
     19 O     c       0.000118      0.000082      0.000025      0.000000
     20 O     c       0.000406      0.000132     -0.000109      0.000000
     21 O     c      -0.000071      0.000309      0.000182      0.000000
     22 O     c      -0.000153      0.000343     -0.000159      0.000000
     23 O     c       0.000090      0.000357     -0.000210      0.000000
     24 O     c       0.000085     -0.000224      0.000055      0.000000
     25 O     c       0.000014     -0.000205     -0.000059      0.000000
     26 O     c       0.000025      0.000118      0.000082      0.000000
     27 O     c       0.000182     -0.000071      0.000309      0.000000
     28 O     c      -0.000210      0.000090      0.000357      0.000000
     29 O     c      -0.000157     -0.000038      0.000285      0.000000
     30 O     c      -0.000109      0.000406      0.000132      0.000000
     31 O     c      -0.000159     -0.000153      0.000343      0.000000
     32 O     c       0.000055      0.000085     -0.000224      0.000000
     33 O     c      -0.000059      0.000014     -0.000205      0.000000
     34 O     c       0.000309      0.000182     -0.000071      0.000000
     35 O     c       0.000285     -0.000157     -0.000038      0.000000
     36 O     c       0.000343     -0.000159     -0.000153      0.000000
     37 O     c       0.000082      0.000025      0.000118      0.000000
     38 O     c       0.000357     -0.000210      0.000090      0.000000
     39 O     c       0.000132     -0.000109      0.000406      0.000000
     40 O     c      -0.000224      0.000055      0.000085      0.000000
     41 La    s      -0.005992     -0.005992     -0.005992      0.000000
     42 La    s      -0.000219     -0.001494     -0.001336      0.000000
     43 La    s      -0.001494     -0.001336     -0.000219      0.000000
     44 La    s      -0.001148     -0.000408     -0.004628      0.000000
     45 La    s      -0.001336     -0.000219     -0.001494      0.000000
     46 La    s      -0.004628     -0.001148     -0.000408      0.000000
     47 La    s      -0.000407     -0.004628     -0.001148      0.000000
     48 La    s      -0.001490     -0.001490     -0.001490      0.000000
     49 Al    s      -0.000165     -0.000165     -0.000165      0.000000
     50 Fe    s      -0.000089      0.000532      0.000284      0.000000
     51 Fe    s       0.000532      0.000284     -0.000088      0.000000
     52 Fe    s      -0.000271     -0.000695      0.000374      0.000000
     53 Fe    s       0.000284     -0.000089      0.000532      0.000000
     54 Fe    s       0.000374     -0.000271     -0.000695      0.000000
     55 Fe    s      -0.000695      0.000374     -0.000271      0.000000
     56 Fe    s      -0.000238     -0.000238     -0.000238      0.000000
     57 O     s       0.000933      0.001314     -0.000560      0.000000
     58 O     s       0.000289     -0.000113      0.000275      0.000000
     59 O     s      -0.000110     -0.000292     -0.000667      0.000000
     60 O     s       0.000878      0.000941      0.000130      0.000000
     61 O     s       0.000856     -0.000156     -0.000249      0.000000
     62 O     s       0.000524     -0.000189      0.000226      0.000000
     63 O     s       0.001910      0.001191      0.000459      0.000000
     64 O     s       0.000369      0.000293     -0.000104      0.000000
     65 O     s      -0.000560      0.000933      0.001314      0.000000
     66 O     s      -0.000667     -0.000110     -0.000292      0.000000
     67 O     s      -0.000249      0.000856     -0.000156      0.000000
     68 O     s       0.000459      0.001910      0.001192      0.000000
     69 O     s       0.000275      0.000289     -0.000113      0.000000
     70 O     s       0.000130      0.000878      0.000941      0.000000
     71 O     s       0.000226      0.000524     -0.000189      0.000000
     72 O     s      -0.000104      0.000369      0.000293      0.000000
     73 O     s       0.001314     -0.000560      0.000933      0.000000
     74 O     s      -0.000156     -0.000249      0.000856      0.000000
     75 O     s      -0.000113      0.000275      0.000289      0.000000
     76 O     s      -0.000189      0.000226      0.000524      0.000000
     77 O     s      -0.000292     -0.000667     -0.000110      0.000000
     78 O     s       0.001191      0.000459      0.001910      0.000000
     79 O     s       0.000941      0.000130      0.000878      0.000000
     80 O     s       0.000293     -0.000104      0.000369      0.000000
--------------------------------------------------------------------------------
  Maximum abs         0.005992      0.005992      0.005992      0.000000
--------------------------------------------------------------------------------


  Time to end of optimisation =       0.7659 seconds


  Peak dynamic memory used =       3.39 MB 


  Timing analysis for GULP :

--------------------------------------------------------------------------------
  Task / Subroutine                                          Time (Seconds)
--------------------------------------------------------------------------------
  Calculation of reciprocal space energy and derivatives          0.0492
  Calculation of real space energy and derivatives                0.6934
  Calculation and manipulation of Hessian matrix                  0.0088
  Calculation of matrix inversion                                 0.0075
--------------------------------------------------------------------------------
  Total CPU time                                                  0.7659
--------------------------------------------------------------------------------


  Job Finished at 17:31.33  5th April      2026                               

