Mg28Ni4O32
   1.00000000
   8.440326707  -0.000000000  -0.000000000
  -0.000000000   8.440347539   0.000000000
  -0.000000000   0.000000000   8.440341748
  Ni  Mg  O
  4  28  32
Direct configuration=     1
   0.000000000   0.999924851   0.000000000
   0.000000000   0.999924851   0.500000000
   0.500000000   0.250075149   0.250000000
   0.500000000   0.250075149   0.750000000
   0.000000000   0.499962248   0.000000000
   0.000000000   0.499962248   0.500000000
   0.500000000   0.000258815   0.000000000
   0.500000000   0.000258815   0.500000000
   0.500000000   0.499790160   0.000000000
   0.500000000   0.499790160   0.500000000
   0.000000000   0.249741185   0.250000000
   0.000000000   0.249741185   0.750000000
   0.000000000   0.750209840   0.250000000
   0.000000000   0.750209840   0.750000000
   0.500000000   0.750037752   0.250000000
   0.500000000   0.750037752   0.750000000
   0.249897664   0.000108956   0.250000000
   0.249897664   0.000108956   0.750000000
   0.250100063   0.499869989   0.250000000
   0.250100063   0.499869989   0.750000000
   0.750102336   0.000108956   0.250000000
   0.750102336   0.000108956   0.750000000
   0.749899937   0.499869989   0.250000000
   0.749899937   0.499869989   0.750000000
   0.250102336   0.249891044   0.000000000
   0.250102336   0.249891044   0.500000000
   0.249899937   0.750130011   0.000000000
   0.249899937   0.750130011   0.500000000
   0.749897664   0.249891044   0.000000000
   0.749897664   0.249891044   0.500000000
   0.750100063   0.750130011   0.000000000
   0.750100063   0.750130011   0.500000000
   0.249806111   0.250045885   0.250000000
   0.249806111   0.250045885   0.750000000
   0.250035432   0.749978467   0.250000000
   0.250035432   0.749978467   0.750000000
   0.750193889   0.250045885   0.250000000
   0.750193889   0.250045885   0.750000000
   0.749964568   0.749978467   0.250000000
   0.749964568   0.749978467   0.750000000
   0.250193889   0.999954115   0.000000000
   0.250193889   0.999954115   0.500000000
   0.249964568   0.500021533   0.000000000
   0.249964568   0.500021533   0.500000000
   0.749806111   0.999954115   0.000000000
   0.749806111   0.999954115   0.500000000
   0.750035432   0.500021533   0.000000000
   0.750035432   0.500021533   0.500000000
   0.000000000   0.250234915   0.000000000
   0.000000000   0.250234915   0.500000000
   0.000000000   0.749799682   0.000000000
   0.000000000   0.749799682   0.500000000
   0.500000000   0.249958925   0.000000000
   0.500000000   0.249958925   0.500000000
   0.500000000   0.750008586   0.000000000
   0.500000000   0.750008586   0.500000000
   0.000000000   0.000041075   0.250000000
   0.000000000   0.000041075   0.750000000
   0.000000000   0.499991414   0.250000000
   0.000000000   0.499991414   0.750000000
   0.500000000   0.999765085   0.250000000
   0.500000000   0.999765085   0.750000000
   0.500000000   0.500200318   0.250000000
   0.500000000   0.500200318   0.750000000
Mg28Ni4O32
   1.00000000
   8.442085893  -0.000000000   0.000000000
  -0.000000000   8.442218732   0.000000000
   0.000000000   0.000000000   8.442182745
  Ni  Mg  O
  4  28  32
Direct configuration=     2
   0.000000000   0.999591054   0.000000000
   0.000000000   0.999591054   0.500000000
   0.500000000   0.250408946   0.250000000
   0.500000000   0.250408946   0.750000000
   0.000000000   0.499749290   0.000000000
   0.000000000   0.499749290   0.500000000
   0.500000000   0.001388127   0.000000000
   0.500000000   0.001388127   0.500000000
   0.500000000   0.498909361   0.000000000
   0.500000000   0.498909361   0.500000000
   0.000000000   0.248611873   0.250000000
   0.000000000   0.248611873   0.750000000
   0.000000000   0.751090639   0.250000000
   0.000000000   0.751090639   0.750000000
   0.500000000   0.750250710   0.250000000
   0.500000000   0.750250710   0.750000000
   0.249484793   0.000586110   0.250000000
   0.249484793   0.000586110   0.750000000
   0.250497258   0.499295396   0.250000000
   0.250497258   0.499295396   0.750000000
   0.750515207   0.000586110   0.250000000
   0.750515207   0.000586110   0.750000000
   0.749502742   0.499295396   0.250000000
   0.749502742   0.499295396   0.750000000
   0.250515207   0.249413890   0.000000000
   0.250515207   0.249413890   0.500000000
   0.249502742   0.750704604   0.000000000
   0.249502742   0.750704604   0.500000000
   0.749484793   0.249413890   0.000000000
   0.749484793   0.249413890   0.500000000
   0.750497258   0.750704604   0.000000000
   0.750497258   0.750704604   0.500000000
   0.248940480   0.250204825   0.250000000
   0.248940480   0.250204825   0.750000000
   0.250125885   0.749932632   0.250000000
   0.250125885   0.749932632   0.750000000
   0.751059520   0.250204825   0.250000000
   0.751059520   0.250204825   0.750000000
   0.749874115   0.749932632   0.250000000
   0.749874115   0.749932632   0.750000000
   0.251059520   0.999795175   0.000000000
   0.251059520   0.999795175   0.500000000
   0.249874115   0.500067368   0.000000000
   0.249874115   0.500067368   0.500000000
   0.748940480   0.999795175   0.000000000
   0.748940480   0.999795175   0.500000000
   0.750125885   0.500067368   0.000000000
   0.750125885   0.500067368   0.500000000
   0.000000000   0.251218288   0.000000000
   0.000000000   0.251218288   0.500000000
   0.000000000   0.748958591   0.000000000
   0.000000000   0.748958591   0.500000000
   0.500000000   0.249786727   0.000000000
   0.500000000   0.249786727   0.500000000
   0.500000000   0.750035660   0.000000000
   0.500000000   0.750035660   0.500000000
   0.000000000   0.000213273   0.250000000
   0.000000000   0.000213273   0.750000000
   0.000000000   0.499964340   0.250000000
   0.000000000   0.499964340   0.750000000
   0.500000000   0.998781712   0.250000000
   0.500000000   0.998781712   0.750000000
   0.500000000   0.501041409   0.250000000
   0.500000000   0.501041409   0.750000000
Mg28Ni4O32
   1.00000000
   8.442597027   0.000000000   0.000000000
   0.000000000   8.442763063   0.000000000
   0.000000000   0.000000000   8.442717383
  Ni  Mg  O
  4  28  32
Direct configuration=     3
   0.000000000   0.999550597   0.000000000
   0.000000000   0.999550597   0.500000000
   0.500000000   0.250449403   0.250000000
   0.500000000   0.250449403   0.750000000
   0.000000000   0.499687772   0.000000000
   0.000000000   0.499687772   0.500000000
   0.500000000   0.001495129   0.000000000
   0.500000000   0.001495129   0.500000000
   0.500000000   0.498857535   0.000000000
   0.500000000   0.498857535   0.500000000
   0.000000000   0.248504871   0.250000000
   0.000000000   0.248504871   0.750000000
   0.000000000   0.751142465   0.250000000
   0.000000000   0.751142465   0.750000000
   0.500000000   0.750312228   0.250000000
   0.500000000   0.750312228   0.750000000
   0.249476866   0.000633565   0.250000000
   0.249476866   0.000633565   0.750000000
   0.250499888   0.499236008   0.250000000
   0.250499888   0.499236008   0.750000000
   0.750523134   0.000633565   0.250000000
   0.750523134   0.000633565   0.750000000
   0.749500112   0.499236008   0.250000000
   0.749500112   0.499236008   0.750000000
   0.250523134   0.249366435   0.000000000
   0.250523134   0.249366435   0.500000000
   0.249500112   0.750763992   0.000000000
   0.249500112   0.750763992   0.500000000
   0.749476866   0.249366435   0.000000000
   0.749476866   0.249366435   0.500000000
   0.750499888   0.750763992   0.000000000
   0.750499888   0.750763992   0.500000000
   0.248841915   0.250181298   0.250000000
   0.248841915   0.250181298   0.750000000
   0.250078304   0.749971840   0.250000000
   0.250078304   0.749971840   0.750000000
   0.751158085   0.250181298   0.250000000
   0.751158085   0.250181298   0.750000000
   0.749921696   0.749971840   0.250000000
   0.749921696   0.749971840   0.750000000
   0.251158085   0.999818702   0.000000000
   0.251158085   0.999818702   0.500000000
   0.249921696   0.500028160   0.000000000
   0.249921696   0.500028160   0.500000000
   0.748841915   0.999818702   0.000000000
   0.748841915   0.999818702   0.500000000
   0.750078304   0.500028160   0.000000000
   0.750078304   0.500028160   0.500000000
   0.000000000   0.251270951   0.000000000
   0.000000000   0.251270951   0.500000000
   0.000000000   0.748909198   0.000000000
   0.000000000   0.748909198   0.500000000
   0.500000000   0.249779056   0.000000000
   0.500000000   0.249779056   0.500000000
   0.500000000   0.750031015   0.000000000
   0.500000000   0.750031015   0.500000000
   0.000000000   0.000220944   0.250000000
   0.000000000   0.000220944   0.750000000
   0.000000000   0.499968985   0.250000000
   0.000000000   0.499968985   0.750000000
   0.500000000   0.998729049   0.250000000
   0.500000000   0.998729049   0.750000000
   0.500000000   0.501090802   0.250000000
   0.500000000   0.501090802   0.750000000
Mg28Ni4O32
   1.00000000
   8.449698307  -0.000000000   0.000000000
  -0.000000000   8.450326975   0.000000000
   0.000000000   0.000000000   8.450143120
  Ni  Mg  O
  4  28  32
Direct configuration=     4
   0.000000000   0.999121060   0.000000000
   0.000000000   0.999121060   0.500000000
   0.500000000   0.250878940   0.250000000
   0.500000000   0.250878940   0.750000000
   0.000000000   0.498893833   0.000000000
   0.000000000   0.498893833   0.500000000
   0.500000000   0.002458483   0.000000000
   0.500000000   0.002458483   0.500000000
   0.500000000   0.498596446   0.000000000
   0.500000000   0.498596446   0.500000000
   0.000000000   0.247541517   0.250000000
   0.000000000   0.247541517   0.750000000
   0.000000000   0.751403554   0.250000000
   0.000000000   0.751403554   0.750000000
   0.500000000   0.751106167   0.250000000
   0.500000000   0.751106167   0.750000000
   0.249600715   0.001071304   0.250000000
   0.249600715   0.001071304   0.750000000
   0.250309446   0.498685030   0.250000000
   0.250309446   0.498685030   0.750000000
   0.750399285   0.001071304   0.250000000
   0.750399285   0.001071304   0.750000000
   0.749690554   0.498685030   0.250000000
   0.749690554   0.498685030   0.750000000
   0.250399285   0.248928696   0.000000000
   0.250399285   0.248928696   0.500000000
   0.249690554   0.751314970   0.000000000
   0.249690554   0.751314970   0.500000000
   0.749600715   0.248928696   0.000000000
   0.749600715   0.248928696   0.500000000
   0.750309446   0.751314970   0.000000000
   0.750309446   0.751314970   0.500000000
   0.247872882   0.249732753   0.250000000
   0.247872882   0.249732753   0.750000000
   0.249328848   0.750587920   0.250000000
   0.249328848   0.750587920   0.750000000
   0.752127118   0.249732753   0.250000000
   0.752127118   0.249732753   0.750000000
   0.750671152   0.750587920   0.250000000
   0.750671152   0.750587920   0.750000000
   0.252127118   0.000267247   0.000000000
   0.252127118   0.000267247   0.500000000
   0.250671152   0.499412080   0.000000000
   0.250671152   0.499412080   0.500000000
   0.747872882   0.000267247   0.000000000
   0.747872882   0.000267247   0.500000000
   0.749328848   0.499412080   0.000000000
   0.749328848   0.499412080   0.500000000
   0.000000000   0.251458541   0.000000000
   0.000000000   0.251458541   0.500000000
   0.000000000   0.748658820   0.000000000
   0.000000000   0.748658820   0.500000000
   0.500000000   0.249770043   0.000000000
   0.500000000   0.249770043   0.500000000
   0.500000000   0.749967653   0.000000000
   0.500000000   0.749967653   0.500000000
   0.000000000   0.000229957   0.250000000
   0.000000000   0.000229957   0.750000000
   0.000000000   0.500032347   0.250000000
   0.000000000   0.500032347   0.750000000
   0.500000000   0.998541459   0.250000000
   0.500000000   0.998541459   0.750000000
   0.500000000   0.501341180   0.250000000
   0.500000000   0.501341180   0.750000000
Mg28Ni4O32
   1.00000000
   8.454592653  -0.000000000   0.000000000
  -0.000000000   8.455540735   0.000000000
   0.000000000   0.000000000   8.455256941
  Ni  Mg  O
  4  28  32
Direct configuration=     5
   0.000000000   0.998916985   0.000000000
   0.000000000   0.998916985   0.500000000
   0.500000000   0.251083015   0.250000000
   0.500000000   0.251083015   0.750000000
   0.000000000   0.498457188   0.000000000
   0.000000000   0.498457188   0.500000000
   0.500000000   0.002763128   0.000000000
   0.500000000   0.002763128   0.500000000
   0.500000000   0.498702062   0.000000000
   0.500000000   0.498702062   0.500000000
   0.000000000   0.247236872   0.250000000
   0.000000000   0.247236872   0.750000000
   0.000000000   0.751297938   0.250000000
   0.000000000   0.751297938   0.750000000
   0.500000000   0.751542812   0.250000000
   0.500000000   0.751542812   0.750000000
   0.249809043   0.001212124   0.250000000
   0.249809043   0.001212124   0.750000000
   0.250069434   0.498512051   0.250000000
   0.250069434   0.498512051   0.750000000
   0.750190957   0.001212124   0.250000000
   0.750190957   0.001212124   0.750000000
   0.749930566   0.498512051   0.250000000
   0.749930566   0.498512051   0.750000000
   0.250190957   0.248787876   0.000000000
   0.250190957   0.248787876   0.500000000
   0.249930566   0.751487949   0.000000000
   0.249930566   0.751487949   0.500000000
   0.749809043   0.248787876   0.000000000
   0.749809043   0.248787876   0.500000000
   0.750069434   0.751487949   0.000000000
   0.750069434   0.751487949   0.500000000
   0.247525721   0.249396256   0.250000000
   0.247525721   0.249396256   0.750000000
   0.248854525   0.750998937   0.250000000
   0.248854525   0.750998937   0.750000000
   0.752474279   0.249396256   0.250000000
   0.752474279   0.249396256   0.750000000
   0.751145475   0.750998937   0.250000000
   0.751145475   0.750998937   0.750000000
   0.252474279   0.000603744   0.000000000
   0.252474279   0.000603744   0.500000000
   0.251145475   0.499001063   0.000000000
   0.251145475   0.499001063   0.500000000
   0.747525721   0.000603744   0.000000000
   0.747525721   0.000603744   0.500000000
   0.748854525   0.499001063   0.000000000
   0.748854525   0.499001063   0.500000000
   0.000000000   0.251226245   0.000000000
   0.000000000   0.251226245   0.500000000
   0.000000000   0.748753893   0.000000000
   0.000000000   0.748753893   0.500000000
   0.500000000   0.249829205   0.000000000
   0.500000000   0.249829205   0.500000000
   0.500000000   0.749956884   0.000000000
   0.500000000   0.749956884   0.500000000
   0.000000000   0.000170795   0.250000000
   0.000000000   0.000170795   0.750000000
   0.000000000   0.500043116   0.250000000
   0.000000000   0.500043116   0.750000000
   0.500000000   0.998773755   0.250000000
   0.500000000   0.998773755   0.750000000
   0.500000000   0.501246107   0.250000000
   0.500000000   0.501246107   0.750000000
Mg28Ni4O32
   1.00000000
   8.460531936  -0.000000000  -0.000000000
  -0.000000000   8.461867024  -0.000000000
  -0.000000000  -0.000000000   8.461455052
  Ni  Mg  O
  4  28  32
Direct configuration=     6
   0.000000000   0.998746098   0.000000000
   0.000000000   0.998746098   0.500000000
   0.500000000   0.251253902   0.250000000
   0.500000000   0.251253902   0.750000000
   0.000000000   0.498113796   0.000000000
   0.000000000   0.498113796   0.500000000
   0.500000000   0.002856165   0.000000000
   0.500000000   0.002856165   0.500000000
   0.500000000   0.499001331   0.000000000
   0.500000000   0.499001331   0.500000000
   0.000000000   0.247143835   0.250000000
   0.000000000   0.247143835   0.750000000
   0.000000000   0.750998669   0.250000000
   0.000000000   0.750998669   0.750000000
   0.500000000   0.751886204   0.250000000
   0.500000000   0.751886204   0.750000000
   0.250095902   0.001245811   0.250000000
   0.250095902   0.001245811   0.750000000
   0.249768626   0.498487991   0.250000000
   0.249768626   0.498487991   0.750000000
   0.749904098   0.001245811   0.250000000
   0.749904098   0.001245811   0.750000000
   0.750231374   0.498487991   0.250000000
   0.750231374   0.498487991   0.750000000
   0.249904098   0.248754189   0.000000000
   0.249904098   0.248754189   0.500000000
   0.250231374   0.751512009   0.000000000
   0.250231374   0.751512009   0.500000000
   0.750095902   0.248754189   0.000000000
   0.750095902   0.248754189   0.500000000
   0.749768626   0.751512009   0.000000000
   0.749768626   0.751512009   0.500000000
   0.247422437   0.249058599   0.250000000
   0.247422437   0.249058599   0.750000000
   0.248470903   0.751384943   0.250000000
   0.248470903   0.751384943   0.750000000
   0.752577563   0.249058599   0.250000000
   0.752577563   0.249058599   0.750000000
   0.751529097   0.751384943   0.250000000
   0.751529097   0.751384943   0.750000000
   0.252577563   0.000941401   0.000000000
   0.252577563   0.000941401   0.500000000
   0.251529097   0.498615057   0.000000000
   0.251529097   0.498615057   0.500000000
   0.747422437   0.000941401   0.000000000
   0.747422437   0.000941401   0.500000000
   0.748470903   0.498615057   0.000000000
   0.748470903   0.498615057   0.500000000
   0.000000000   0.250692361   0.000000000
   0.000000000   0.250692361   0.500000000
   0.000000000   0.749023273   0.000000000
   0.000000000   0.749023273   0.500000000
   0.500000000   0.249948469   0.000000000
   0.500000000   0.249948469   0.500000000
   0.500000000   0.750014714   0.000000000
   0.500000000   0.750014714   0.500000000
   0.000000000   0.000051531   0.250000000
   0.000000000   0.000051531   0.750000000
   0.000000000   0.499985286   0.250000000
   0.000000000   0.499985286   0.750000000
   0.500000000   0.999307639   0.250000000
   0.500000000   0.999307639   0.750000000
   0.500000000   0.500976727   0.250000000
   0.500000000   0.500976727   0.750000000
Mg28Ni4O32
   1.00000000
   8.466661599  -0.000000000  -0.000000000
  -0.000000000   8.468394744  -0.000000000
  -0.000000000  -0.000000000   8.467843048
  Ni  Mg  O
  4  28  32
Direct configuration=     7
   0.000000000   0.998619077   0.000000000
   0.000000000   0.998619077   0.500000000
   0.500000000   0.251380923   0.250000000
   0.500000000   0.251380923   0.750000000
   0.000000000   0.497982226   0.000000000
   0.000000000   0.497982226   0.500000000
   0.500000000   0.002821930   0.000000000
   0.500000000   0.002821930   0.500000000
   0.500000000   0.499317821   0.000000000
   0.500000000   0.499317821   0.500000000
   0.000000000   0.247178070   0.250000000
   0.000000000   0.247178070   0.750000000
   0.000000000   0.750682179   0.250000000
   0.000000000   0.750682179   0.750000000
   0.500000000   0.752017774   0.250000000
   0.500000000   0.752017774   0.750000000
   0.250320332   0.001199128   0.250000000
   0.250320332   0.001199128   0.750000000
   0.249558993   0.498585507   0.250000000
   0.249558993   0.498585507   0.750000000
   0.749679668   0.001199128   0.250000000
   0.749679668   0.001199128   0.750000000
   0.750441007   0.498585507   0.250000000
   0.750441007   0.498585507   0.750000000
   0.249679668   0.248800872   0.000000000
   0.249679668   0.248800872   0.500000000
   0.250441007   0.751414493   0.000000000
   0.250441007   0.751414493   0.500000000
   0.750320332   0.248800872   0.000000000
   0.750320332   0.248800872   0.500000000
   0.749558993   0.751414493   0.000000000
   0.749558993   0.751414493   0.500000000
   0.247561558   0.248874942   0.250000000
   0.247561558   0.248874942   0.750000000
   0.248384287   0.751580465   0.250000000
   0.248384287   0.751580465   0.750000000
   0.752438442   0.248874942   0.250000000
   0.752438442   0.248874942   0.750000000
   0.751615713   0.751580465   0.250000000
   0.751615713   0.751580465   0.750000000
   0.252438442   0.001125058   0.000000000
   0.252438442   0.001125058   0.500000000
   0.251615713   0.498419535   0.000000000
   0.251615713   0.498419535   0.500000000
   0.747561558   0.001125058   0.000000000
   0.747561558   0.001125058   0.500000000
   0.748384287   0.498419535   0.000000000
   0.748384287   0.498419535   0.500000000
   0.000000000   0.250073737   0.000000000
   0.000000000   0.250073737   0.500000000
   0.000000000   0.749294011   0.000000000
   0.000000000   0.749294011   0.500000000
   0.500000000   0.250090113   0.000000000
   0.500000000   0.250090113   0.500000000
   0.500000000   0.750164141   0.000000000
   0.500000000   0.750164141   0.500000000
   0.000000000   0.999909887   0.250000000
   0.000000000   0.999909887   0.750000000
   0.000000000   0.499835859   0.250000000
   0.000000000   0.499835859   0.750000000
   0.500000000   0.999926263   0.250000000
   0.500000000   0.999926263   0.750000000
   0.500000000   0.500705989   0.250000000
   0.500000000   0.500705989   0.750000000
Mg28Ni4O32
   1.00000000
   8.477064944  -0.000000000  -0.000000000
  -0.000000000   8.479473115  -0.000000000
  -0.000000000  -0.000000000   8.478675788
  Ni  Mg  O
  4  28  32
Direct configuration=     8
   0.000000000   0.998434673   0.000000000
   0.000000000   0.998434673   0.500000000
   0.500000000   0.251565327   0.250000000
   0.500000000   0.251565327   0.750000000
   0.000000000   0.498017605   0.000000000
   0.000000000   0.498017605   0.500000000
   0.500000000   0.002772345   0.000000000
   0.500000000   0.002772345   0.500000000
   0.500000000   0.499692788   0.000000000
   0.500000000   0.499692788   0.500000000
   0.000000000   0.247227655   0.250000000
   0.000000000   0.247227655   0.750000000
   0.000000000   0.750307212   0.250000000
   0.000000000   0.750307212   0.750000000
   0.500000000   0.751982395   0.250000000
   0.500000000   0.751982395   0.750000000
   0.250517208   0.001092326   0.250000000
   0.250517208   0.001092326   0.750000000
   0.249419331   0.498808441   0.250000000
   0.249419331   0.498808441   0.750000000
   0.749482792   0.001092326   0.250000000
   0.749482792   0.001092326   0.750000000
   0.750580669   0.498808441   0.250000000
   0.750580669   0.498808441   0.750000000
   0.249482792   0.248907674   0.000000000
   0.249482792   0.248907674   0.500000000
   0.250580669   0.751191559   0.000000000
   0.250580669   0.751191559   0.500000000
   0.750517208   0.248907674   0.000000000
   0.750517208   0.248907674   0.500000000
   0.749419331   0.751191559   0.000000000
   0.749419331   0.751191559   0.500000000
   0.247972041   0.248832401   0.250000000
   0.247972041   0.248832401   0.750000000
   0.248663644   0.751604584   0.250000000
   0.248663644   0.751604584   0.750000000
   0.752027959   0.248832401   0.250000000
   0.752027959   0.248832401   0.750000000
   0.751336356   0.751604584   0.250000000
   0.751336356   0.751604584   0.750000000
   0.252027959   0.001167599   0.000000000
   0.252027959   0.001167599   0.500000000
   0.251336356   0.498395416   0.000000000
   0.251336356   0.498395416   0.500000000
   0.747972041   0.001167599   0.000000000
   0.747972041   0.001167599   0.500000000
   0.748663644   0.498395416   0.000000000
   0.748663644   0.498395416   0.500000000
   0.000000000   0.249164161   0.000000000
   0.000000000   0.249164161   0.500000000
   0.000000000   0.749571707   0.000000000
   0.000000000   0.749571707   0.500000000
   0.500000000   0.250323199   0.000000000
   0.500000000   0.250323199   0.500000000
   0.500000000   0.750513017   0.000000000
   0.500000000   0.750513017   0.500000000
   0.000000000   0.999676801   0.250000000
   0.000000000   0.999676801   0.750000000
   0.000000000   0.499486983   0.250000000
   0.000000000   0.499486983   0.750000000
   0.500000000   0.000835839   0.250000000
   0.500000000   0.000835839   0.750000000
   0.500000000   0.500428293   0.250000000
   0.500000000   0.500428293   0.750000000
Mg28Ni4O32
   1.00000000
   8.488437640  -0.000000000  -0.000000000
  -0.000000000   8.491586745  -0.000000000
  -0.000000000  -0.000000000   8.490512277
  Ni  Mg  O
  4  28  32
Direct configuration=     9
   0.000000000   0.998258099   0.000000000
   0.000000000   0.998258099   0.500000000
   0.500000000   0.251741901   0.250000000
   0.500000000   0.251741901   0.750000000
   0.000000000   0.498285692   0.000000000
   0.000000000   0.498285692   0.500000000
   0.500000000   0.002817553   0.000000000
   0.500000000   0.002817553   0.500000000
   0.500000000   0.499837398   0.000000000
   0.500000000   0.499837398   0.500000000
   0.000000000   0.247182447   0.250000000
   0.000000000   0.247182447   0.750000000
   0.000000000   0.750162602   0.250000000
   0.000000000   0.750162602   0.750000000
   0.500000000   0.751714308   0.250000000
   0.500000000   0.751714308   0.750000000
   0.250492709   0.000990889   0.250000000
   0.250492709   0.000990889   0.750000000
   0.249529683   0.499043356   0.250000000
   0.249529683   0.499043356   0.750000000
   0.749507291   0.000990889   0.250000000
   0.749507291   0.000990889   0.750000000
   0.750470317   0.499043356   0.250000000
   0.750470317   0.499043356   0.750000000
   0.249507291   0.249009111   0.000000000
   0.249507291   0.249009111   0.500000000
   0.250470317   0.750956644   0.000000000
   0.250470317   0.750956644   0.500000000
   0.750492709   0.249009111   0.000000000
   0.750492709   0.249009111   0.500000000
   0.749529683   0.750956644   0.000000000
   0.749529683   0.750956644   0.500000000
   0.248500095   0.249089745   0.250000000
   0.248500095   0.249089745   0.750000000
   0.249385021   0.751292208   0.250000000
   0.249385021   0.751292208   0.750000000
   0.751499905   0.249089745   0.250000000
   0.751499905   0.249089745   0.750000000
   0.750614979   0.751292208   0.250000000
   0.750614979   0.751292208   0.750000000
   0.251499905   0.000910255   0.000000000
   0.251499905   0.000910255   0.500000000
   0.250614979   0.498707792   0.000000000
   0.250614979   0.498707792   0.500000000
   0.748500095   0.000910255   0.000000000
   0.748500095   0.000910255   0.500000000
   0.749385021   0.498707792   0.000000000
   0.749385021   0.498707792   0.500000000
   0.000000000   0.248478482   0.000000000
   0.000000000   0.248478482   0.500000000
   0.000000000   0.749579926   0.000000000
   0.000000000   0.749579926   0.500000000
   0.500000000   0.250556118   0.000000000
   0.500000000   0.250556118   0.500000000
   0.500000000   0.750948808   0.000000000
   0.500000000   0.750948808   0.500000000
   0.000000000   0.999443882   0.250000000
   0.000000000   0.999443882   0.750000000
   0.000000000   0.499051192   0.250000000
   0.000000000   0.499051192   0.750000000
   0.500000000   0.001521518   0.250000000
   0.500000000   0.001521518   0.750000000
   0.500000000   0.500420074   0.250000000
   0.500000000   0.500420074   0.750000000
Mg28Ni4O32
   1.00000000
   8.494949011  -0.000000000  -0.000000000
  -0.000000000   8.498530382  -0.000000000
  -0.000000000  -0.000000000   8.497288131
  Ni  Mg  O
  4  28  32
Direct configuration=     10
   0.000000000   0.998197896   0.000000000
   0.000000000   0.998197896   0.500000000
   0.500000000   0.251802104   0.250000000
   0.500000000   0.251802104   0.750000000
   0.000000000   0.498615805   0.000000000
   0.000000000   0.498615805   0.500000000
   0.500000000   0.002935834   0.000000000
   0.500000000   0.002935834   0.500000000
   0.500000000   0.499652390   0.000000000
   0.500000000   0.499652390   0.500000000
   0.000000000   0.247064166   0.250000000
   0.000000000   0.247064166   0.750000000
   0.000000000   0.750347610   0.250000000
   0.000000000   0.750347610   0.750000000
   0.500000000   0.751384195   0.250000000
   0.500000000   0.751384195   0.750000000
   0.250246000   0.000952650   0.250000000
   0.250246000   0.000952650   0.750000000
   0.249834016   0.499139286   0.250000000
   0.249834016   0.499139286   0.750000000
   0.749754000   0.000952650   0.250000000
   0.749754000   0.000952650   0.750000000
   0.750165984   0.499139286   0.250000000
   0.750165984   0.499139286   0.750000000
   0.249754000   0.249047350   0.000000000
   0.249754000   0.249047350   0.500000000
   0.250165984   0.750860714   0.000000000
   0.250165984   0.750860714   0.500000000
   0.750246000   0.249047350   0.000000000
   0.750246000   0.249047350   0.500000000
   0.749834016   0.750860714   0.000000000
   0.749834016   0.750860714   0.500000000
   0.248825760   0.249518263   0.250000000
   0.248825760   0.249518263   0.750000000
   0.250119946   0.750800943   0.250000000
   0.250119946   0.750800943   0.750000000
   0.751174240   0.249518263   0.250000000
   0.751174240   0.249518263   0.750000000
   0.749880054   0.750800943   0.250000000
   0.749880054   0.750800943   0.750000000
   0.251174240   0.000481737   0.000000000
   0.251174240   0.000481737   0.500000000
   0.249880054   0.499199057   0.000000000
   0.249880054   0.499199057   0.500000000
   0.748825760   0.000481737   0.000000000
   0.748825760   0.000481737   0.500000000
   0.750119946   0.499199057   0.000000000
   0.750119946   0.499199057   0.500000000
   0.000000000   0.248466317   0.000000000
   0.000000000   0.248466317   0.500000000
   0.000000000   0.749272642   0.000000000
   0.000000000   0.749272642   0.500000000
   0.500000000   0.250668375   0.000000000
   0.500000000   0.250668375   0.500000000
   0.500000000   0.751189352   0.000000000
   0.500000000   0.751189352   0.500000000
   0.000000000   0.999331625   0.250000000
   0.000000000   0.999331625   0.750000000
   0.000000000   0.498810648   0.250000000
   0.000000000   0.498810648   0.750000000
   0.500000000   0.001533683   0.250000000
   0.500000000   0.001533683   0.750000000
   0.500000000   0.500727358   0.250000000
   0.500000000   0.500727358   0.750000000
Mg28Ni4O32
   1.00000000
   8.495493163  -0.000000000  -0.000000000
  -0.000000000   8.499123444  -0.000000000
  -0.000000000  -0.000000000   8.497857528
  Ni  Mg  O
  4  28  32
Direct configuration=     11
   0.000000000   0.998256207   0.000000000
   0.000000000   0.998256207   0.500000000
   0.500000000   0.251743793   0.250000000
   0.500000000   0.251743793   0.750000000