H107LiMg53
   1.00000000
   13.503017128  -0.000000159  -0.000000074
  -0.000000159   13.503017128   0.000000074
  -0.000000049   0.000000049   9.029981196
  Li  Mg  H
  1  53  107
Direct configuration=     1
   0.000001790   0.999998209   0.000003151
   0.999999439   0.000000560   0.332887433
   0.999998130   0.000001869   0.667103590
   0.000003450   0.333309922   0.999992525
   0.000000589   0.333326339   0.333333957
   0.999994364   0.333326238   0.666673937
   0.999997148   0.666693433   0.999999336
   0.999998925   0.666675897   0.333326742
   0.000001359   0.666678818   0.666673942
   0.333306567   0.000002851   0.999999337
   0.333324102   0.000001075   0.333326742
   0.333321182   0.999998640   0.666673943
   0.333328959   0.333329391   0.000000324
   0.333328814   0.333329213   0.333328489
   0.333329536   0.333329232   0.666671189
   0.333325523   0.666674477   0.000000449
   0.333330874   0.666669126   0.333334823
   0.333331952   0.666668048   0.666664727
   0.666690078   0.999996549   0.999992525
   0.666673661   0.999999410   0.333333956
   0.666673761   0.000005636   0.666673938
   0.666513992   0.333486008   0.999576629
   0.666509376   0.333490624   0.333758130
   0.666661259   0.333338742   0.666664314
   0.666670609   0.666671041   0.000000324
   0.666670787   0.666671186   0.333328489
   0.666670768   0.666670465   0.666671190
   0.166533672   0.166535215   0.166479156
   0.166657870   0.166656586   0.500001993
   0.166535401   0.166534142   0.833518914
   0.166662920   0.500001176   0.166664049
   0.166663340   0.500000174   0.499999483
   0.166661217   0.500000289   0.833336469
   0.166526142   0.833473857   0.166620674
   0.166655247   0.833344752   0.499999837
   0.166525523   0.833474477   0.833379473
   0.499977033   0.166649331   0.166664248
   0.500005789   0.166659522   0.500007072
   0.500005774   0.166657321   0.833328635
   0.499974357   0.500025643   0.166667728
   0.500009585   0.499990415   0.499996211
   0.500009540   0.499990460   0.833336060
   0.499998824   0.833337080   0.166664049
   0.499999826   0.833336660   0.499999482
   0.499999711   0.833338783   0.833336469
   0.833653237   0.166346762   0.166611242
   0.833352466   0.166647533   0.500030251
   0.833482366   0.166517634   0.833347068
   0.833350668   0.500022967   0.166664249
   0.833340478   0.499994210   0.500007072
   0.833342678   0.499994226   0.833328635
   0.833464784   0.833466328   0.166479156
   0.833343414   0.833342130   0.500001993
   0.833465858   0.833464599   0.833518914
   0.101610049   0.101608142   0.999999021
   0.101467838   0.101465924   0.333406892
   0.101466706   0.101465251   0.666594394
   0.101441284   0.434773194   0.000000493
   0.101439568   0.434772046   0.333331865
   0.101438940   0.434771375   0.666667649
   0.101456691   0.768073195   0.999999969
   0.101437387   0.768083338   0.333356105
   0.101437616   0.768083639   0.666643909
   0.434778298   0.101444746   0.000006393
   0.434776973   0.101442849   0.333325940
   0.434769680   0.101438288   0.666667664
   0.434776834   0.434769499   0.000005768
   0.434776528   0.434769188   0.333327129
   0.434765565   0.434774066   0.666667106
   0.434772147   0.768105417   0.000000294
   0.434772428   0.768106105   0.333332264
   0.434772576   0.768106062   0.666667442
   0.768058580   0.101515807   0.000074276
   0.768060956   0.101491357   0.333289465
   0.768084684   0.101435785   0.666644624
   0.768092309   0.434708664   0.000076966
   0.768093072   0.434709544   0.333255620
   0.768113294   0.434780118   0.666667512
   0.768039378   0.768039164   0.999999563
   0.768109115   0.768108883   0.333326307
   0.768109291   0.768109271   0.666674103
   0.231960836   0.231960622   0.999999563
   0.231891116   0.231890885   0.333326307
   0.231890729   0.231890709   0.666674103
   0.231894583   0.565227853   0.000000295
   0.231893895   0.565227572   0.333332264
   0.231893938   0.565227424   0.666667441
   0.231926806   0.898543309   0.999999969
   0.231916662   0.898562613   0.333356105
   0.231916361   0.898562384   0.666643910
   0.565291336   0.231907691   0.000076966
   0.565290456   0.231906928   0.333255620
   0.565219882   0.231886706   0.666667512
   0.565230501   0.565223166   0.000005768
   0.565230812   0.565223472   0.333327129
   0.565225934   0.565234435   0.666667106
   0.565226807   0.898558717   0.000000493
   0.565227954   0.898560432   0.333331865
   0.565228626   0.898561061   0.666667650
   0.898484193   0.231941420   0.000074276
   0.898508643   0.231939045   0.333289465
   0.898564215   0.231915316   0.666644624
   0.898555254   0.565221703   0.000006393
   0.898557151   0.565223027   0.333325940
   0.898561713   0.565230321   0.666667664
   0.898391859   0.898389951   0.999999021
   0.898534076   0.898532163   0.333406892
   0.898534750   0.898533295   0.666594393
   0.065215395   0.268138140   0.166691953
   0.065227526   0.268097577   0.500000416
   0.065217823   0.268135921   0.833307532
   0.065229129   0.601440753   0.166668154
   0.065229138   0.601439911   0.500000353
   0.065229061   0.601440457   0.833331492
   0.065359247   0.934640753   0.166967482
   0.065214792   0.934785208   0.500000007
   0.065359109   0.934640892   0.833032356
   0.398561812   0.268106594   0.166665993
   0.398560133   0.268106305   0.499998956
   0.398557483   0.268104519   0.833335058
   0.398560334   0.601439665   0.166666578
   0.398561760   0.601438240   0.500000782
   0.398561249   0.601438751   0.833332640
   0.398559247   0.934770871   0.166668153
   0.398560089   0.934770862   0.500000353
   0.398559543   0.934770939   0.833331492
   0.731898125   0.268101875   0.499990354
   0.731903212   0.268096788   0.833344685
   0.731893406   0.601438188   0.166665993
   0.731893695   0.601439867   0.499998956
   0.731895481   0.601442517   0.833335058
   0.731861861   0.934784605   0.166691953
   0.731902423   0.934772474   0.500000416
   0.731864079   0.934782177   0.833307532
   0.268135988   0.065217306   0.166692249
   0.268097915   0.065226863   0.500000167
   0.268136296   0.065217401   0.833307586
   0.268102675   0.398558836   0.166666006
   0.268105266   0.398561553   0.499999418
   0.268103487   0.398558885   0.833334577
   0.268101646   0.731898354   0.166665854
   0.268105507   0.731894493   0.499999906
   0.268101269   0.731898731   0.833334237
   0.601454155   0.065253896   0.166667816
   0.601441285   0.065225404   0.500002658
   0.601442107   0.065225388   0.833329567
   0.601639850   0.398360151   0.166666354
   0.601429859   0.398570141   0.499993718
   0.601430535   0.398569465   0.833339867
   0.601441164   0.731897324   0.166666006
   0.601438447   0.731894733   0.499999418
   0.601441115   0.731896513   0.833334577
   0.934634062   0.065365938   0.166963019
   0.934785434   0.065214566   0.500000128
   0.934641452   0.065358548   0.833034956
   0.934746104   0.398545845   0.166667816
   0.934774596   0.398558715   0.500002658
   0.934774612   0.398557893   0.833329566
   0.934782694   0.731864011   0.166692249
   0.934773136   0.731902085   0.500000168
   0.934782599   0.731863703   0.833307586
H107LiMg53
   1.00000000
   13.503221417  -0.000004453  -0.000000889
  -0.000004453   13.503221412   0.000000888
  -0.000000594   0.000000594   9.029764585
  Li  Mg  H
  1  53  107
Direct configuration=     2
   0.000024607   0.999975382   0.000034342
   0.000001418   0.999998568   0.328240197
   0.999979784   0.000020196   0.671668062
   0.000032425   0.333069058   0.999919924
   0.999995880   0.333255942   0.333352566
   0.999935228   0.333258110   0.666732782
   0.999963414   0.666966681   0.999992757
   0.999988710   0.666768330   0.333274716
   0.000018188   0.666803915   0.666732762
   0.333033329   0.000036579   0.999992767
   0.333231649   0.000011266   0.333274697
   0.333196093   0.999981788   0.666732797
   0.333294535   0.333300769   0.000003412
   0.333270152   0.333276015   0.333282075
   0.333276300   0.333276926   0.666714572
   0.333230090   0.666769879   0.000001910
   0.333298805   0.666701194   0.333347409
   0.333313991   0.666685978   0.666650675
   0.666930923   0.999967555   0.999919931
   0.666744071   0.000004116   0.333352553
   0.666741874   0.000064744   0.666732769
   0.664807091   0.335192940   0.994940917
   0.664748253   0.335251742   0.338403199
   0.666621284   0.333378757   0.666645559
   0.666699230   0.666705471   0.000003407
   0.666724005   0.666729847   0.333282075
   0.666723086   0.666723703   0.666714592
   0.165101456   0.165120670   0.164530931
   0.166581865   0.166565936   0.500024544
   0.165122463   0.165106688   0.835445382
   0.166617071   0.500016420   0.166631796
   0.166623100   0.500001381   0.499994810
   0.166597898   0.500004870   0.833373387
   0.165068715   0.834931283   0.166167809
   0.166511898   0.833488113   0.499998188
   0.165060346   0.834939638   0.833833680
   0.499726976   0.166452817   0.166634108
   0.500074472   0.166580367   0.500057214
   0.500076298   0.166554311   0.833308274
   0.499749473   0.500250526   0.166675153
   0.500097074   0.499902920   0.499949177
   0.500096533   0.499903463   0.833375690
   0.499983581   0.833382947   0.166631788
   0.499998620   0.833376919   0.499994824
   0.499995135   0.833402099   0.833373386
   0.837138821   0.162861175   0.166064153
   0.833579239   0.166420780   0.500340024
   0.835031226   0.164968790   0.833468837
   0.833547164   0.500273026   0.166634107
   0.833419646   0.499925505   0.500057215
   0.833445689   0.499923700   0.833308270
   0.834879360   0.834898544   0.164530945
   0.833434071   0.833418127   0.500024528
   0.834893299   0.834877535   0.835445395
   0.103468805   0.103447788   0.999989843
   0.101831143   0.101810310   0.334187585
   0.101819684   0.101802186   0.665826007
   0.101526945   0.434835502   0.000006355
   0.101509388   0.434825890   0.333319648
   0.101501742   0.434817241   0.666674092
   0.101717219   0.767785421   0.999999364
   0.101494761   0.767892824   0.333616705
   0.101498303   0.767897475   0.666383671
   0.434901078   0.101572739   0.000073733
   0.434889586   0.101553259   0.333251997
   0.434795679   0.101492527   0.666674154
   0.434895394   0.434789780   0.000081666
   0.434891645   0.434785949   0.333249635
   0.434752908   0.434849910   0.666668752
   0.434830847   0.768164035   0.000003856
   0.434833414   0.768172538   0.333324600
   0.434835034   0.768172999   0.666671549
   0.767592852   0.102433915   0.000897668
   0.767610163   0.102154680   0.332805765
   0.767909767   0.101473662   0.666392697
   0.768023255   0.434063196   0.000919093
   0.768032552   0.434073273   0.332409593
   0.768254575   0.434924423   0.666672476
   0.767375852   0.767373023   0.999994478
   0.768229804   0.768226724   0.333198136
   0.768231632   0.768230989   0.666807025
   0.232626978   0.232624152   0.999994486
   0.231773297   0.231770218   0.333198136
   0.231769005   0.231768362   0.666807019
   0.231835984   0.565169170   0.000003860
   0.231827456   0.565166585   0.333324597
   0.231827018   0.565164981   0.666671544
   0.232214583   0.898282799   0.999999370
   0.232107165   0.898505232   0.333616706
   0.232102521   0.898501688   0.666383671
   0.565936788   0.231976722   0.000919091
   0.565926731   0.231967457   0.332409593
   0.565075563   0.231745403   0.666672475
   0.565210220   0.565104609   0.000081666
   0.565214045   0.565108352   0.333249635
   0.565150089   0.565247095   0.666668752
   0.565164491   0.898473048   0.000006371
   0.565174114   0.898490616   0.333319643
   0.565182761   0.898498255   0.666674082
   0.897566099   0.232407160   0.000897671
   0.897845300   0.232389819   0.332805772
   0.898526338   0.232090230   0.666392692
   0.898427257   0.565098923   0.000073734
   0.898446767   0.565110430   0.333251994
   0.898507474   0.565204322   0.666674161
   0.896552214   0.896531195   0.999989842
   0.898189667   0.898168833   0.334187577
   0.898197826   0.898180324   0.665826004
   0.065026056   0.268549785   0.166961442
   0.065162163   0.268073086   0.500003892
   0.065053305   0.268522709   0.833033724
   0.065186873   0.601523758   0.166677911
   0.065184220   0.601515656   0.500003525
   0.065186158   0.601520523   0.833318573
   0.066658744   0.933341261   0.170234227
   0.064983688   0.935016318   0.499998405
   0.066663717   0.933336283   0.829763422
   0.398510699   0.268181674   0.166658268
   0.398494172   0.268172649   0.499984143
   0.398465979   0.268151011   0.833357670
   0.398484073   0.601515929   0.166661215
   0.398508101   0.601491895   0.500007472
   0.398505161   0.601494839   0.833331321
   0.398476257   0.934813126   0.166677909
   0.398484368   0.934815770   0.500003530
   0.398479464   0.934813860   0.833318551
   0.731876238   0.268123765   0.499925726
   0.731979509   0.268020491   0.833430167
   0.731818347   0.601489290   0.166658265
   0.731827334   0.601505828   0.499984142
   0.731848978   0.601534030   0.833357667
   0.731450201   0.934973951   0.166961461
   0.731926906   0.934837850   0.500003889
   0.731477303   0.934946706   0.833033718
   0.268524512   0.065051429   0.166965387
   0.268078132   0.065157207   0.500001452
   0.268528377   0.065051683   0.833033211
   0.268132151   0.398476618   0.166658423
   0.268162795   0.398505682   0.499991869
   0.268141193   0.398477288   0.833349677
   0.268077294   0.731922700   0.166655230
   0.268163893   0.731836108   0.499999004
   0.268071538   0.731928463   0.833345727
   0.601690665   0.065488505   0.166673668
   0.601531524   0.065140668   0.500031919
   0.601540326   0.065143442   0.833295400
   0.603909136   0.396090864   0.166658745
   0.601356597   0.398643402   0.500031709
   0.601361789   0.398638204   0.833308683
   0.601523373   0.731867852   0.166658420
   0.601494295   0.731837225   0.499991872
   0.601522739   0.731858782   0.833349678
   0.933339041   0.066660972   0.170166377
   0.935016161   0.064983834   0.499995102
   0.933341687   0.066658304   0.829802841
   0.934511491   0.398309343   0.166673661
   0.934859325   0.398468487   0.500031912
   0.934856572   0.398459681   0.833295403
   0.934948557   0.731475500   0.166965386
   0.934842809   0.731921869   0.500001448
   0.934948338   0.731471612   0.833033224
H107LiMg53
   1.00000000
   13.503238481  -0.000007839  -0.000000850
  -0.000007839   13.503238477   0.000000850
  -0.000000568   0.000000568   9.029756370
  Li  Mg  H
  1  53  107
Direct configuration=     3
   0.000028610   0.999971379   0.000030267
   0.000011142   0.999988845   0.328459995
   0.999981663   0.000018322   0.671466070
   0.000023520   0.333080259   0.999928017
   0.999985005   0.333258861   0.333359844
   0.999937492   0.333263643   0.666717622
   0.999961394   0.666951727   0.999993411
   0.999990115   0.666763265   0.333289354
   0.000019898   0.666799405   0.666717453
   0.333048281   0.000038600   0.999993418
   0.333236713   0.000009862   0.333289336
   0.333200600   0.999980079   0.666717485
   0.333304007   0.333311249   0.000003102
   0.333258497   0.333265382   0.333284246
   0.333262575   0.333266750   0.666712715
   0.333217339   0.666782635   0.999999273
   0.333290503   0.666709497   0.333340070
   0.333307705   0.666692269   0.666660654
   0.666919722   0.999976462   0.999928021
   0.666741147   0.000014990   0.333359833
   0.666736343   0.000062482   0.666717614
   0.664794309   0.335205719   0.994971552
   0.664731798   0.335268200   0.338363013
   0.666643824   0.333356212   0.666655442
   0.666688748   0.666695998   0.000003097
   0.666734639   0.666741501   0.333284246
   0.666733263   0.666737428   0.666712733
   0.165135077   0.165154981   0.164649632
   0.166603676   0.166587361   0.500025100
   0.165156167   0.165140058   0.835326198
   0.166616014   0.500018427   0.166631870
   0.166622705   0.500000751   0.499995603
   0.166597787   0.500006105   0.833372518
   0.165156142   0.834843855   0.166213855
   0.166498780   0.833501228   0.499998302
   0.165147573   0.834852409   0.833787408
   0.499730312   0.166451373   0.166634123
   0.500079480   0.166582722   0.500032879
   0.500083130   0.166556997   0.833332679
   0.499791549   0.500208450   0.166674890
   0.500079869   0.499920125   0.499945455
   0.500079358   0.499920639   0.833379673
   0.499981572   0.833384004   0.166631862
   0.499999253   0.833377311   0.499995616
   0.499993901   0.833402210   0.833372522
   0.837056875   0.162943119   0.166116246
   0.833589783   0.166410233   0.500319481
   0.834939356   0.165060661   0.833442782
   0.833548611   0.500269689   0.166634123
   0.833417293   0.499920498   0.500032879
   0.833443003   0.499916868   0.833332674
   0.834845047   0.834864926   0.164649642
   0.833412644   0.833396317   0.500025085
   0.834859932   0.834843832   0.835326211
   0.103394750   0.103375136   0.999990546
   0.101814056   0.101795220   0.334162111
   0.101804191   0.101786649   0.665850198
   0.101522212   0.434830603   0.000006828
   0.101507187   0.434824425   0.333319945
   0.101499686   0.434815401   0.666673324
   0.101717424   0.767791020   0.999999175
   0.101503128   0.767884762   0.333624581
   0.101507362   0.767890351   0.666375924
   0.434899865   0.101571585   0.000071171
   0.434891968   0.101554798   0.333255321
   0.434793013   0.101489433   0.666673315
   0.434904688   0.434783099   0.000091898
   0.434900180   0.434778524   0.333239017
   0.434754701   0.434847965   0.666669158
   0.434832432   0.768163142   0.000004059
   0.434834439   0.768171954   0.333324884
   0.434835880   0.768173233   0.666671058
   0.767583047   0.102442784   0.000906526
   0.767589473   0.102176008   0.332800156
   0.767902551   0.101480265   0.666385429
   0.768037325   0.434057883   0.000915108
   0.768046723   0.434067576   0.332414026
   0.768250646   0.434924812   0.666672114
   0.767379845   0.767376728   0.999994245
   0.768245914   0.768242537   0.333153053
   0.768247466   0.768246459   0.666852431
   0.232623274   0.232620160   0.999994251
   0.231757483   0.231754106   0.333153053
   0.231753535   0.231752528   0.666852426
   0.231836874   0.565167582   0.000004064
   0.231828041   0.565165559   0.333324881
   0.231826781   0.565164132   0.666671055
   0.232208985   0.898282594   0.999999179
   0.232115229   0.898496866   0.333624582
   0.232109647   0.898492630   0.666375923
   0.565942104   0.231962656   0.000915106
   0.565932426   0.231953283   0.332414025
   0.565075178   0.231749336   0.666672113
   0.565216900   0.565095314   0.000091898
   0.565221471   0.565099817   0.333239016
   0.565152034   0.565245302   0.666669157
   0.565169389   0.898477780   0.000006840
   0.565175579   0.898492818   0.333319940
   0.565184600   0.898500311   0.666673314
   0.897557230   0.232416965   0.000906529
   0.897823976   0.232410513   0.332800163
   0.898519734   0.232097446   0.666385428
   0.898428411   0.565100135   0.000071173
   0.898445227   0.565108047   0.333255317
   0.898510566   0.565206986   0.666673322
   0.896624863   0.896605248   0.999990546
   0.898204759   0.898185922   0.334162102
   0.898213358   0.898195812   0.665850198
   0.065029712   0.268542922   0.166957437
   0.065157704   0.268075026   0.500002705
   0.065055374   0.268515609   0.833038942
   0.065187097   0.601521544   0.166675492
   0.065182184   0.601514977   0.500002836
   0.065186607   0.601518594   0.833321687
   0.066582260   0.933417744   0.170219963
   0.064960525   0.935039481   0.499997086
   0.066590697   0.933409304   0.829776505
   0.398516205   0.268184183   0.166661704
   0.398502055   0.268170030   0.499981242
   0.398477837   0.268148547   0.833357140
   0.398481986   0.601518015   0.166660258
   0.398511011   0.601488984   0.500005720
   0.398510031   0.601489968   0.833334032
   0.398478471   0.934812901   0.166675492
   0.398485044   0.934817807   0.500002841
   0.398481394   0.934813409   0.833321668
   0.731874250   0.268125752   0.499962633
   0.732008608   0.267991391   0.833391835
   0.731815834   0.601483786   0.166661702
   0.731829953   0.601497947   0.499981241
   0.731851444   0.601522169   0.833357136
   0.731457068   0.934970291   0.166957452
   0.731924969   0.934842305   0.500002704
   0.731484401   0.934944639   0.833038935
   0.268518473   0.065057401   0.166961697
   0.268081033   0.065155496   0.500000891
   0.268522406   0.065056767   0.833037503
   0.268132269   0.398483583   0.166661872
   0.268162408   0.398508686   0.499990780
   0.268140914   0.398484263   0.833347315
   0.268044939   0.731955055   0.166657012
   0.268161770   0.731838232   0.499999196
   0.268038370   0.731961632   0.833343738
   0.601693883   0.065493075   0.166671095
   0.601530387   0.065139671   0.500032031
   0.601538419   0.065145078   0.833298361
   0.603917571   0.396082430   0.166657843
   0.601310451   0.398689548   0.500158177
   0.601314188   0.398685805   0.833183544
   0.601516412   0.731867731   0.166661868
   0.601491292   0.731837612   0.499990784
   0.601515761   0.731859064   0.833347316
   0.933530333   0.066469680   0.170142942
   0.935037027   0.064962969   0.499988884
   0.933414893   0.066585098   0.829823788
   0.934506921   0.398306124   0.166671088
   0.934860324   0.398469622   0.500032026
   0.934854933   0.398461591   0.833298365
   0.934942586   0.731481537   0.166961695
   0.934844519   0.731918970   0.500000888
   0.934943252   0.731477584   0.833037515
H107LiMg53
   1.00000000
   13.503453373  -0.000041219  -0.000000613
  -0.000041219   13.503453369   0.000000613
  -0.000000410   0.000000410   9.029623687
  Li  Mg  H
  1  53  107
Direct configuration=     4
   0.000074150   0.999925841   0.999999800
   0.000112082   0.999887892   0.329446785
   0.999994519   0.000005473   0.670642590
   0.999945228   0.333127632   0.999986792
   0.999880563   0.333271710   0.333429262
   0.999944876   0.333300327   0.666592527
   0.999934628   0.666877361   0.999997746
   0.000000413   0.666735722   0.333411485
   0.000039608   0.666784937   0.666590865
   0.333122640   0.000065364   0.999997738
   0.333264265   0.999999575   0.333411485
   0.333215048   0.999960370   0.666590871
   0.333385981   0.333404204   0.000000367
   0.333134483   0.333152387   0.333291755
   0.333121542   0.333158410   0.666707987
   0.333071700   0.666928301   0.999976875
   0.333203254   0.666796730   0.333273558
   0.333242897   0.666757115   0.666749584
   0.666872358   0.000054770   0.999986765
   0.666728286   0.000119428   0.333429264
   0.666699674   0.000055104   0.666592544
   0.664263939   0.335736056   0.994143144
   0.664152373   0.335847631   0.339105319
   0.666849557   0.333150442   0.666742239
   0.666595793   0.666614021   0.000000371
   0.666847615   0.666865510   0.333291756
   0.666841588   0.666878450   0.666707974
   0.165106887   0.165137626   0.165278285
   0.166789221   0.166766342   0.500034896
   0.165133243   0.165111086   0.834688488
   0.166594518   0.500040242   0.166624849
   0.166608718   0.499995248   0.500001574
   0.166580795   0.500018266   0.833373545
   0.165610542   0.834389459   0.166539264
   0.166339672   0.833660330   0.499998762
   0.165600650   0.834399335   0.833460535
   0.499702372   0.166390544   0.166627056
   0.500144752   0.166586363   0.499818315
   0.500165382   0.166557865   0.833555027
   0.500140808   0.499859191   0.166676270
   0.499930586   0.500069412   0.499902035
   0.499930305   0.500069691   0.833421694
   0.499959755   0.833405505   0.166624848
   0.500004765   0.833391286   0.500001591
   0.499981740   0.833419217   0.833373562
   0.837165183   0.162834801   0.166476725
   0.833743644   0.166256357   0.500197509
   0.834462797   0.165537212   0.833229104
   0.833609462   0.500297621   0.166627051
   0.833413653   0.499855245   0.499818313
   0.833442133   0.499834617   0.833555020
   0.834862397   0.834893121   0.165278278
   0.833233646   0.833210786   0.500034887
   0.834888916   0.834866752   0.834688472
   0.103143206   0.103132585   0.999993666
   0.101742306   0.101737495   0.334122058
   0.101743333   0.101721379   0.665883457
   0.101497341   0.434799295   0.000012937
   0.101501633   0.434822490   0.333320075
   0.101495374   0.434808909   0.666667118
   0.101781456   0.767776485   0.999997212
   0.101597217   0.767762088   0.333764872
   0.101608657   0.767777798   0.666236809
   0.434918238   0.101591147   0.000064083
   0.434940652   0.101594592   0.333268533
   0.434775482   0.101474207   0.666666462
   0.435025691   0.434722654   0.000209542
   0.435009737   0.434706723   0.333117472
   0.434762037   0.434846140   0.666673246
   0.434859720   0.768167903   0.000006257
   0.434857601   0.768181826   0.333325294
   0.434857535   0.768190790   0.666668420
   0.767381706   0.102748473   0.001191019
   0.767286370   0.102539326   0.332630841
   0.767792367   0.101552687   0.666252824
   0.768154519   0.433850856   0.001073279
   0.768167142   0.433859761   0.332258074
   0.768248497   0.434963211   0.666670860
   0.767267038   0.767260369   0.999990514
   0.768424752   0.768417706   0.332697711
   0.768424054   0.768419481   0.667312211
   0.232739623   0.232732957   0.999990508
   0.231582301   0.231575263   0.332697711
   0.231580517   0.231575954   0.667312204
   0.231832096   0.565140272   0.000006264
   0.231818182   0.565142402   0.333325297
   0.231809196   0.565142449   0.666668422
   0.232223524   0.898218558   0.999997217
   0.232237902   0.898402774   0.333764871
   0.232222212   0.898391344   0.666236808
   0.566149149   0.231845486   0.001073277
   0.566140223   0.231832843   0.332258075
   0.565036805   0.231751511   0.666670854
   0.565277349   0.564974311   0.000209541
   0.565293279   0.564990267   0.333117473
   0.565153865   0.565237968   0.666673246
   0.565200686   0.898502638   0.000012934
   0.565177507   0.898498368   0.333320071
   0.565191095   0.898504627   0.666667117
   0.897251543   0.232618311   0.001191014
   0.897460681   0.232713637   0.332630849
   0.898447313   0.232207630   0.666252832
   0.898408840   0.565081757   0.000064083
   0.898405422   0.565059351   0.333268536
   0.898525793   0.565224520   0.666666470
   0.896867413   0.896856799   0.999993678
   0.898262504   0.898257687   0.334122045
   0.898278622   0.898256657   0.665883473
   0.065017762   0.268575600   0.166985354
   0.065100837   0.268085805   0.499990580
   0.065034379   0.268540346   0.833023257
   0.065178703   0.601520256   0.166655817
   0.065153128   0.601524530   0.499996735
   0.065180760   0.601519312   0.833347541
   0.066202779   0.933797221   0.170863715
   0.064693674   0.935306334   0.499986367
   0.066236335   0.933763667   0.829117478
   0.398557975   0.268226247   0.166693244
   0.398558865   0.268160391   0.499948923
   0.398569527   0.268137262   0.833358008
   0.398445502   0.601554495   0.166648328
   0.398522467   0.601477526   0.499989972
   0.398534950   0.601465049   0.833361724
   0.398479758   0.934821298   0.166655820
   0.398475463   0.934846884   0.499996726
   0.398480683   0.934819246   0.833347546
   0.731846513   0.268153489   0.500295296
   0.732286049   0.267713949   0.833051046
   0.731773748   0.601442041   0.166693243
   0.731839590   0.601441146   0.499948931
   0.731862740   0.601430470   0.833358012
   0.731424417   0.934982222   0.166985354
   0.731914212   0.934899151   0.499990590
   0.731459652   0.934965642   0.833023263
   0.268554612   0.065074405   0.166993386
   0.268102332   0.065124742   0.499995580
   0.268559440   0.065065108   0.833011528
   0.268140865   0.398531004   0.166693572
   0.268171839   0.398521232   0.499978168
   0.268148243   0.398531606   0.833328221
   0.267740707   0.732259291   0.166671904
   0.268153390   0.731846615   0.500001101
   0.267726950   0.732273050   0.833326791
   0.601780906   0.065592684   0.166648981
   0.601539441   0.065110849   0.500039487
   0.601543993   0.065141170   0.833317983
   0.604530208   0.395469799   0.166645752
   0.600860396   0.399139609   0.501374597
   0.600855816   0.399144178   0.831982666
   0.601469012   0.731859122   0.166693569
   0.601478762   0.731828168   0.499978159
   0.601468414   0.731851744   0.833328225
   0.934976733   0.065023273   0.170670342
   0.935282195   0.064717807   0.499926998
   0.933771339   0.066228654   0.829253054
   0.934407310   0.398219103   0.166648978
   0.934889168   0.398460549   0.500039485
   0.934858829   0.398456017   0.833317984
   0.934925584   0.731445400   0.166993386
   0.934875259   0.731897681   0.499995584
   0.934934895   0.731440562   0.833011527
H107LiMg53
   1.00000000
   13.503646119  -0.000067667  -0.000000381
  -0.000067667   13.503646115   0.000000381
  -0.000000255   0.000000255   9.029494951
  Li  Mg  H
  1  53  107
Direct configuration=     5
   0.000115840   0.999884154   0.999980250
   0.000205085   0.999794886   0.329693329
   0.000000726   0.999999282   0.670539051
   0.999887906   0.333133621   0.000021370
   0.999801142   0.333277319   0.333475552
   0.999943811   0.333321035   0.666514410
   0.999911850   0.666856417   0.999999773
   0.000005837   0.666722229   0.333488844
   0.000055132   0.666784826   0.666511430
   0.333143581   0.000088144   0.999999755
   0.333277758   0.999994155   0.333488850
   0.333215148   0.999944850   0.666511419
   0.333444023   0.333471111   0.999997802
   0.333036304   0.333063031   0.333288187
   0.333013812   0.333072746   0.666714158
   0.332948361   0.667051661   0.999965211
   0.333132699   0.666867289   0.333224943
   0.333190395   0.666809635   0.666809838
   0.666866366   0.000112100   0.000021329
   0.666722664   0.000198852   0.333475564
   0.666678977   0.000056177   0.666514450
   0.663680046   0.336319935   0.992996668
   0.663523403   0.336476606   0.340193612
   0.667002279   0.332997699   0.666800246
   0.666528881   0.666555977   0.999997812
   0.666936974   0.666963686   0.333288184
   0.666927254   0.666986181   0.666714136
   0.164919605   0.164960492   0.165478893
   0.166913578   0.166885366   0.500043067