Mg28Ni4O32
   1.00000000
   8.440352758  -0.000000000  -0.000000000
  -0.000000000   8.440352758  -0.000000000
  -0.000000000  -0.000000000   8.440348184
  Ni  Mg  O
  4  28  32
Direct configuration=     1
   0.000000000   0.000000000   0.000000000
   0.000000000   0.000000000   0.500000000
   0.000000000   0.500000000   0.000000000
   0.500000000   0.000000000   0.500000000
   0.000000000   0.500000000   0.500000000
   0.500000000   0.000000000   0.000000000
   0.500000000   0.500000000   0.000000000
   0.500000000   0.500000000   0.500000000
   0.000000000   0.249869886   0.249881463
   0.000000000   0.249869886   0.750118537
   0.000000000   0.750130114   0.249881463
   0.000000000   0.750130114   0.750118537
   0.500000000   0.249902587   0.250109773
   0.500000000   0.249902587   0.749890227
   0.500000000   0.750097413   0.250109773
   0.500000000   0.750097413   0.749890227
   0.249869886   0.000000000   0.250118537
   0.249869886   0.000000000   0.749881463
   0.249902587   0.500000000   0.249890227
   0.249902587   0.500000000   0.750109773
   0.750130114   0.000000000   0.250118537
   0.750130114   0.000000000   0.749881463
   0.750097413   0.500000000   0.249890227
   0.750097413   0.500000000   0.750109773
   0.249779985   0.249996621   0.000000000
   0.249996621   0.249779985   0.500000000
   0.249779985   0.750003379   0.000000000
   0.249996621   0.750220015   0.500000000
   0.750220015   0.249996621   0.000000000
   0.750003379   0.249779985   0.500000000
   0.750220015   0.750003379   0.000000000
   0.750003379   0.750220015   0.500000000
   0.250013258   0.250013258   0.250000000
   0.250013258   0.250013258   0.750000000
   0.250013258   0.749986742   0.250000000
   0.250013258   0.749986742   0.750000000
   0.749986742   0.250013258   0.250000000
   0.749986742   0.250013258   0.750000000
   0.749986742   0.749986742   0.250000000
   0.749986742   0.749986742   0.750000000
   0.250212651   0.000000000   0.000000000
   0.249902526   0.000000000   0.500000000
   0.250177866   0.500000000   0.000000000
   0.249975798   0.500000000   0.500000000
   0.749787349   0.000000000   0.000000000
   0.750097474   0.000000000   0.500000000
   0.749822134   0.500000000   0.000000000
   0.750024202   0.500000000   0.500000000
   0.000000000   0.249902526   0.000000000
   0.000000000   0.250212651   0.500000000
   0.000000000   0.750097474   0.000000000
   0.000000000   0.749787349   0.500000000
   0.500000000   0.249975798   0.000000000
   0.500000000   0.250177866   0.500000000
   0.500000000   0.750024202   0.000000000
   0.500000000   0.749822134   0.500000000
   0.000000000   0.000000000   0.250000000
   0.000000000   0.000000000   0.750000000
   0.000000000   0.500000000   0.250256076
   0.000000000   0.500000000   0.749743924
   0.500000000   0.000000000   0.249743924
   0.500000000   0.000000000   0.750256076
   0.500000000   0.500000000   0.250000000
   0.500000000   0.500000000   0.750000000
Mg28Ni4O32
   1.00000000
   8.442241407   0.000000000  -0.000000000
   0.000000000   8.442241407   0.000000000
  -0.000000000   0.000000000   8.442212308
  Ni  Mg  O
  4  28  32
Direct configuration=     2
   0.000000000   0.000000000   0.000000000
   0.000000000   0.000000000   0.500000000
   0.000000000   0.500000000   0.000000000
   0.500000000   0.000000000   0.500000000
   0.000000000   0.500000000   0.500000000
   0.500000000   0.000000000   0.000000000
   0.500000000   0.500000000   0.000000000
   0.500000000   0.500000000   0.500000000
   0.000000000   0.249293566   0.249396771
   0.000000000   0.249293566   0.750603229
   0.000000000   0.750706434   0.249396771
   0.000000000   0.750706434   0.750603229
   0.500000000   0.249466293   0.250549654
   0.500000000   0.249466293   0.749450346
   0.500000000   0.750533707   0.250549654
   0.500000000   0.750533707   0.749450346
   0.249293566   0.000000000   0.250603229
   0.249293566   0.000000000   0.749396771
   0.249466293   0.500000000   0.249450346
   0.249466293   0.500000000   0.750549654
   0.750706434   0.000000000   0.250603229
   0.750706434   0.000000000   0.749396771
   0.750533707   0.500000000   0.249450346
   0.750533707   0.500000000   0.750549654
   0.248848463   0.249933901   0.000000000
   0.249933901   0.248848463   0.500000000
   0.248848463   0.750066099   0.000000000
   0.249933901   0.751151537   0.500000000
   0.751151537   0.249933901   0.000000000
   0.750066099   0.248848463   0.500000000
   0.751151537   0.750066099   0.000000000
   0.750066099   0.751151537   0.500000000
   0.250024110   0.250024110   0.250000000
   0.250024110   0.250024110   0.750000000
   0.250024110   0.749975890   0.250000000
   0.250024110   0.749975890   0.750000000
   0.749975890   0.250024110   0.250000000
   0.749975890   0.250024110   0.750000000
   0.749975890   0.749975890   0.250000000
   0.749975890   0.749975890   0.750000000
   0.251102601   0.000000000   0.000000000
   0.249457441   0.000000000   0.500000000
   0.250892208   0.500000000   0.000000000
   0.249897874   0.500000000   0.500000000
   0.748897399   0.000000000   0.000000000
   0.750542559   0.000000000   0.500000000
   0.749107792   0.500000000   0.000000000
   0.750102126   0.500000000   0.500000000
   0.000000000   0.249457441   0.000000000
   0.000000000   0.251102601   0.500000000
   0.000000000   0.750542559   0.000000000
   0.000000000   0.748897399   0.500000000
   0.500000000   0.249897874   0.000000000
   0.500000000   0.250892208   0.500000000
   0.500000000   0.750102126   0.000000000
   0.500000000   0.749107792   0.500000000
   0.000000000   0.000000000   0.250000000
   0.000000000   0.000000000   0.750000000
   0.000000000   0.500000000   0.251316900
   0.000000000   0.500000000   0.748683100
   0.500000000   0.000000000   0.248683100
   0.500000000   0.000000000   0.751316900
   0.500000000   0.500000000   0.250000000
   0.500000000   0.500000000   0.750000000
Mg28Ni4O32
   1.00000000
   8.442823117   0.000000000  -0.000000000
   0.000000000   8.442823117   0.000000000
  -0.000000000   0.000000000   8.442786538
  Ni  Mg  O
  4  28  32
Direct configuration=     3
   0.000000000   0.000000000   0.000000000
   0.000000000   0.000000000   0.500000000
   0.000000000   0.500000000   0.000000000
   0.500000000   0.000000000   0.500000000
   0.000000000   0.500000000   0.500000000
   0.500000000   0.000000000   0.000000000
   0.500000000   0.500000000   0.000000000
   0.500000000   0.500000000   0.500000000
   0.000000000   0.249219354   0.249369875
   0.000000000   0.249219354   0.750630125
   0.000000000   0.750780646   0.249369875
   0.000000000   0.750780646   0.750630125
   0.500000000   0.249405967   0.250566746
   0.500000000   0.249405967   0.749433254
   0.500000000   0.750594033   0.250566746
   0.500000000   0.750594033   0.749433254
   0.249219354   0.000000000   0.250630125
   0.249219354   0.000000000   0.749369875
   0.249405967   0.500000000   0.249433254
   0.249405967   0.500000000   0.750566746
   0.750780646   0.000000000   0.250630125
   0.750780646   0.000000000   0.749369875
   0.750594033   0.500000000   0.249433254
   0.750594033   0.500000000   0.750566746
   0.248765757   0.249884266   0.000000000
   0.249884266   0.248765757   0.500000000
   0.248765757   0.750115734   0.000000000
   0.249884266   0.751234243   0.500000000
   0.751234243   0.249884266   0.000000000
   0.750115734   0.248765757   0.500000000
   0.751234243   0.750115734   0.000000000
   0.750115734   0.751234243   0.500000000
   0.249982625   0.249982625   0.250000000
   0.249982625   0.249982625   0.750000000
   0.249982625   0.750017375   0.250000000
   0.249982625   0.750017375   0.750000000
   0.750017375   0.249982625   0.250000000
   0.750017375   0.249982625   0.750000000
   0.750017375   0.750017375   0.250000000
   0.750017375   0.750017375   0.750000000
   0.251170849   0.000000000   0.000000000
   0.249386787   0.000000000   0.500000000
   0.250916486   0.500000000   0.000000000
   0.249912210   0.500000000   0.500000000
   0.748829151   0.000000000   0.000000000
   0.750613213   0.000000000   0.500000000
   0.749083514   0.500000000   0.000000000
   0.750087790   0.500000000   0.500000000
   0.000000000   0.249386787   0.000000000
   0.000000000   0.251170849   0.500000000
   0.000000000   0.750613213   0.000000000
   0.000000000   0.748829151   0.500000000
   0.500000000   0.249912210   0.000000000
   0.500000000   0.250916486   0.500000000
   0.500000000   0.750087790   0.000000000
   0.500000000   0.749083514   0.500000000
   0.000000000   0.000000000   0.250000000
   0.000000000   0.000000000   0.750000000
   0.000000000   0.500000000   0.251387927
   0.000000000   0.500000000   0.748612073
   0.500000000   0.000000000   0.248612073
   0.500000000   0.000000000   0.751387927
   0.500000000   0.500000000   0.250000000
   0.500000000   0.500000000   0.750000000
Mg28Ni4O32
   1.00000000
   8.451706662   0.000000000  -0.000000000
   0.000000000   8.451706662   0.000000000
  -0.000000000   0.000000000   8.451555878
  Ni  Mg  O
  4  28  32
Direct configuration=     4
   0.000000000   0.000000000   1.000000000
   0.000000000   0.000000000   0.500000000
   0.000000000   0.500000000   0.000000000
   0.500000000   0.000000000   0.500000000
   0.000000000   0.500000000   0.500000000
   0.500000000   0.000000000   0.000000000
   0.500000000   0.500000000   1.000000000
   0.500000000   0.500000000   0.500000000
   0.000000000   0.248383193   0.249254713
   0.000000000   0.248383193   0.750745287
   0.000000000   0.751616807   0.249254713
   0.000000000   0.751616807   0.750745287
   0.500000000   0.248709202   0.250554032
   0.500000000   0.248709202   0.749445968
   0.500000000   0.751290798   0.250554032
   0.500000000   0.751290798   0.749445968
   0.248383193   0.000000000   0.250745287
   0.248383193   0.000000000   0.749254713
   0.248709202   0.500000000   0.249445968
   0.248709202   0.500000000   0.750554032
   0.751616807   0.000000000   0.250745287
   0.751616807   0.000000000   0.749254713
   0.751290798   0.500000000   0.249445968
   0.751290798   0.500000000   0.750554032
   0.248031134   0.249107389   1.000000000
   0.249107389   0.248031134   0.500000000
   0.248031134   0.750892611   1.000000000
   0.249107389   0.751968866   0.500000000
   0.751968866   0.249107389   1.000000000
   0.750892611   0.248031134   0.500000000
   0.751968866   0.750892611   1.000000000
   0.750892611   0.751968866   0.500000000
   0.249281702   0.249281702   0.250000000
   0.249281702   0.249281702   0.750000000
   0.249281702   0.750718298   0.250000000
   0.249281702   0.750718298   0.750000000
   0.750718298   0.249281702   0.250000000
   0.750718298   0.249281702   0.750000000
   0.750718298   0.750718298   0.250000000
   0.750718298   0.750718298   0.750000000
   0.251693657   0.000000000   1.000000000
   0.248503135   0.000000000   0.500000000
   0.250791756   0.500000000   0.000000000
   0.250188481   0.500000000   0.500000000
   0.748306343   0.000000000   1.000000000
   0.751496865   0.000000000   0.500000000
   0.749208244   0.500000000   1.000000000
   0.749811519   0.500000000   0.500000000
   1.000000000   0.248503135   1.000000000
   0.000000000   0.251693657   0.500000000
   1.000000000   0.751496865   1.000000000
   0.000000000   0.748306343   0.500000000
   0.500000000   0.250188481   1.000000000
   0.500000000   0.250791756   0.500000000
   0.500000000   0.749811519   1.000000000
   0.500000000   0.749208244   0.500000000
   0.000000000   0.000000000   0.250000000
   0.000000000   0.000000000   0.750000000
   0.000000000   0.500000000   0.251830966
   1.000000000   0.500000000   0.748169034
   0.500000000   1.000000000   0.248169034
   0.500000000   1.000000000   0.751830966
   0.500000000   0.500000000   0.250000000
   0.500000000   0.500000000   0.750000000
Mg28Ni4O32
   1.00000000
   8.458915724   0.000000000  -0.000000000
   0.000000000   8.458915724  -0.000000000
  -0.000000000  -0.000000000   8.458670352
  Ni  Mg  O
  4  28  32
Direct configuration=     5
   0.000000000   0.000000000   1.000000000
   0.000000000   0.000000000   0.500000000
   0.000000000   0.500000000   0.000000000
   0.500000000   0.000000000   0.500000000
   0.000000000   0.500000000   0.500000000
   0.500000000   0.000000000   0.000000000
   0.500000000   0.500000000   1.000000000
   0.500000000   0.500000000   0.500000000
   0.000000000   0.247966486   0.249356138
   0.000000000   0.247966486   0.750643862
   0.000000000   0.752033514   0.249356138
   0.000000000   0.752033514   0.750643862
   0.500000000   0.248351801   0.250378641
   0.500000000   0.248351801   0.749621359
   0.500000000   0.751648199   0.250378641
   0.500000000   0.751648199   0.749621359
   0.247966486   0.000000000   0.250643862
   0.247966486   0.000000000   0.749356138
   0.248351801   0.500000000   0.249621359
   0.248351801   0.500000000   0.750378641
   0.752033514   0.000000000   0.250643862
   0.752033514   0.000000000   0.749356138
   0.751648199   0.500000000   0.249621359
   0.751648199   0.500000000   0.750378641
   0.247831149   0.248537361   1.000000000
   0.248537361   0.247831149   0.500000000
   0.247831149   0.751462639   1.000000000
   0.248537361   0.752168851   0.500000000
   0.752168851   0.248537361   1.000000000
   0.751462639   0.247831149   0.500000000
   0.752168851   0.751462639   1.000000000
   0.751462639   0.752168851   0.500000000
   0.248727309   0.248727309   0.250000000
   0.248727309   0.248727309   0.750000000
   0.248727309   0.751272691   0.250000000
   0.248727309   0.751272691   0.750000000
   0.751272691   0.248727309   0.250000000
   0.751272691   0.248727309   0.750000000
   0.751272691   0.751272691   0.250000000
   0.751272691   0.751272691   0.750000000
   0.251745657   0.000000000   1.000000000
   0.247964104   0.000000000   0.500000000
   0.250339506   0.500000000   0.000000000
   0.250406160   0.500000000   0.500000000
   0.748254343   0.000000000   1.000000000
   0.752035896   0.000000000   0.500000000
   0.749660494   0.500000000   1.000000000
   0.749593840   0.500000000   0.500000000
   0.000000000   0.247964104   1.000000000
   0.000000000   0.251745657   0.500000000
   0.000000000   0.752035896   1.000000000
   0.000000000   0.748254343   0.500000000
   0.500000000   0.250406160   1.000000000
   0.500000000   0.250339506   0.500000000
   0.500000000   0.749593840   1.000000000
   0.500000000   0.749660494   0.500000000
   0.000000000   0.000000000   0.250000000
   0.000000000   0.000000000   0.750000000
   0.000000000   0.500000000   0.251735141
   1.000000000   0.500000000   0.748264859
   0.500000000   1.000000000   0.248264859
   0.500000000   1.000000000   0.751735141
   0.500000000   0.500000000   0.250000000
   0.500000000   0.500000000   0.750000000
Mg28Ni4O32
   1.00000000
   8.466699852   0.000000000  -0.000000000
   0.000000000   8.466699852  -0.000000000
  -0.000000000  -0.000000000   8.466347060
  Ni  Mg  O
  4  28  32
Direct configuration=     6
   0.000000000   0.000000000   1.000000000
   0.000000000   0.000000000   0.500000000
   0.000000000   0.500000000   0.000000000
   0.500000000   0.000000000   0.500000000
   0.000000000   0.500000000   0.500000000
   0.500000000   0.000000000   0.000000000
   0.500000000   0.500000000   0.000000000
   0.500000000   0.500000000   0.500000000
   0.000000000   0.247791141   0.249580706
   0.000000000   0.247791141   0.750419294
   0.000000000   0.752208859   0.249580706
   0.000000000   0.752208859   0.750419294
   0.500000000   0.248193859   0.250118007
   0.500000000   0.248193859   0.749881993
   0.500000000   0.751806141   0.250118007
   0.500000000   0.751806141   0.749881993
   0.247791141   0.000000000   0.250419294
   0.247791141   0.000000000   0.749580706
   0.248193859   0.500000000   0.249881993
   0.248193859   0.500000000   0.750118007
   0.752208859   0.000000000   0.250419294
   0.752208859   0.000000000   0.749580706
   0.751806141   0.500000000   0.249881993
   0.751806141   0.500000000   0.750118007
   0.247934857   0.248087741   1.000000000
   0.248087741   0.247934857   0.500000000
   0.247934857   0.751912259   1.000000000
   0.248087741   0.752065143   0.500000000
   0.752065143   0.248087741   1.000000000
   0.751912259   0.247934857   0.500000000
   0.752065143   0.751912259   1.000000000
   0.751912259   0.752065143   0.500000000
   0.248247653   0.248247653   0.250000000
   0.248247653   0.248247653   0.750000000
   0.248247653   0.751752347   0.250000000
   0.248247653   0.751752347   0.750000000
   0.751752347   0.248247653   0.250000000
   0.751752347   0.248247653   0.750000000
   0.751752347   0.751752347   0.250000000
   0.751752347   0.751752347   0.750000000
   0.251528397   0.000000000   1.000000000
   0.247579235   0.000000000   0.500000000
   0.249612220   0.500000000   0.000000000
   0.250564768   0.500000000   0.500000000
   0.748471603   0.000000000   1.000000000
   0.752420765   0.000000000   0.500000000
   0.750387780   0.500000000   1.000000000
   0.749435232   0.500000000   0.500000000
   0.000000000   0.247579235   1.000000000
   0.000000000   0.251528397   0.500000000
   0.000000000   0.752420765   1.000000000
   0.000000000   0.748471603   0.500000000
   0.500000000   0.250564768   1.000000000
   0.500000000   0.249612220   0.500000000
   0.500000000   0.749435232   1.000000000
   0.500000000   0.750387780   0.500000000
   0.000000000   0.000000000   0.250000000
   0.000000000   0.000000000   0.750000000
   0.000000000   0.500000000   0.251306154
   1.000000000   0.500000000   0.748693846
   0.500000000   0.000000000   0.248693846
   0.500000000   0.000000000   0.751306154
   0.500000000   0.500000000   0.250000000
   0.500000000   0.500000000   0.750000000
Mg28Ni4O32
   1.00000000
   8.472343565   0.000000000  -0.000000000
   0.000000000   8.472343565  -0.000000000
  -0.000000000  -0.000000000   8.471905728
  Ni  Mg  O
  4  28  32
Direct configuration=     7
   0.000000000   0.000000000   0.000000000
   0.000000000   0.000000000   0.500000000
   0.000000000   0.500000000   0.000000000
   0.500000000   0.000000000   0.500000000
   0.000000000   0.500000000   0.500000000
   0.500000000   0.000000000   0.000000000
   0.500000000   0.500000000   0.000000000
   0.500000000   0.500000000   0.500000000
   0.000000000   0.247892957   0.249747412
   0.000000000   0.247892957   0.750252588
   0.000000000   0.752107043   0.249747412
   0.000000000   0.752107043   0.750252588
   0.500000000   0.248274411   0.249973059
   0.500000000   0.248274411   0.750026941
   0.500000000   0.751725589   0.249973059
   0.500000000   0.751725589   0.750026941
   0.247892957   0.000000000   0.250252588
   0.247892957   0.000000000   0.749747412
   0.248274411   0.500000000   0.250026941
   0.248274411   0.500000000   0.749973059
   0.752107043   0.000000000   0.250252588
   0.752107043   0.000000000   0.749747412
   0.751725589   0.500000000   0.250026941
   0.751725589   0.500000000   0.749973059
   0.248176399   0.248003383   0.000000000
   0.248003383   0.248176399   0.500000000
   0.248176399   0.751996617   0.000000000
   0.248003383   0.751823601   0.500000000
   0.751823601   0.248003383   0.000000000
   0.751996617   0.248176399   0.500000000
   0.751823601   0.751996617   0.000000000
   0.751996617   0.751823601   0.500000000
   0.248110310   0.248110310   0.250000000
   0.248110310   0.248110310   0.750000000
   0.248110310   0.751889690   0.250000000
   0.248110310   0.751889690   0.750000000
   0.751889690   0.248110310   0.250000000
   0.751889690   0.248110310   0.750000000
   0.751889690   0.751889690   0.250000000
   0.751889690   0.751889690   0.750000000
   0.251263855   0.000000000   0.000000000
   0.247479297   0.000000000   0.500000000
   0.249037754   0.500000000   0.000000000
   0.250555210   0.500000000   0.500000000
   0.748736145   0.000000000   0.000000000
   0.752520703   0.000000000   0.500000000
   0.750962246   0.500000000   0.000000000
   0.749444790   0.500000000   0.500000000
   0.000000000   0.247479297   1.000000000
   0.000000000   0.251263855   0.500000000
   0.000000000   0.752520703   1.000000000
   0.000000000   0.748736145   0.500000000
   0.500000000   0.250555210   0.000000000
   0.500000000   0.249037754   0.500000000
   0.500000000   0.749444790   0.000000000
   0.500000000   0.750962246   0.500000000
   0.000000000   0.000000000   0.250000000
   0.000000000   0.000000000   0.750000000
   0.000000000   0.500000000   0.250884174
   0.000000000   0.500000000   0.749115826
   0.500000000   0.000000000   0.249115826
   0.500000000   0.000000000   0.750884174
   0.500000000   0.500000000   0.250000000
   0.500000000   0.500000000   0.750000000
Mg28Ni4O32
   1.00000000
   8.480613413   0.000000000  -0.000000000
   0.000000000   8.480613413  -0.000000000
   0.000000000  -0.000000000   8.480042172
  Ni  Mg  O
  4  28  32
Direct configuration=     8
   0.000000000   0.000000000   0.000000000
   0.000000000   0.000000000   0.500000000
   0.000000000   0.500000000   0.000000000
   0.500000000   0.000000000   0.500000000
   0.000000000   0.500000000   0.500000000
   0.500000000   0.000000000   0.000000000
   0.500000000   0.500000000   0.000000000
   0.500000000   0.500000000   0.500000000
   0.000000000   0.248230926   0.249879979
   0.000000000   0.248230926   0.750120021
   0.000000000   0.751769074   0.249879979
   0.000000000   0.751769074   0.750120021
   0.500000000   0.248551962   0.249923686
   0.500000000   0.248551962   0.750076314
   0.500000000   0.751448038   0.249923686
   0.500000000   0.751448038   0.750076314
   0.248230926   0.000000000   0.250120021
   0.248230926   0.000000000   0.749879979
   0.248551962   0.500000000   0.250076314
   0.248551962   0.500000000   0.749923686
   0.751769074   0.000000000   0.250120021
   0.751769074   0.000000000   0.749879979
   0.751448038   0.500000000   0.250076314
   0.751448038   0.500000000   0.749923686
   0.248540616   0.248204478   0.000000000
   0.248204478   0.248540616   0.500000000
   0.248540616   0.751795522   0.000000000
   0.248204478   0.751459384   0.500000000
   0.751459384   0.248204478   0.000000000
   0.751795522   0.248540616   0.500000000
   0.751459384   0.751795522   0.000000000
   0.751795522   0.751459384   0.500000000
   0.248228813   0.248228813   0.250000000
   0.248228813   0.248228813   0.750000000
   0.248228813   0.751771187   0.250000000
   0.248228813   0.751771187   0.750000000
   0.751771187   0.248228813   0.250000000
   0.751771187   0.248228813   0.750000000
   0.751771187   0.751771187   0.250000000
   0.751771187   0.751771187   0.750000000
   0.250940738   0.000000000   0.000000000
   0.247508308   0.000000000   0.500000000
   0.248381549   0.500000000   0.000000000
   0.250379915   0.500000000   0.500000000
   0.749059262   0.000000000   0.000000000
   0.752491692   0.000000000   0.500000000
   0.751618451   0.500000000   0.000000000
   0.749620085   0.500000000   0.500000000
   0.000000000   0.247508308   0.000000000
   0.000000000   0.250940738   0.500000000
   0.000000000   0.752491692   0.000000000
   0.000000000   0.749059262   0.500000000
   0.500000000   0.250379915   0.000000000
   0.500000000   0.248381549   0.500000000
   0.500000000   0.749620085   0.000000000
   0.500000000   0.751618451   0.500000000
   0.000000000   0.000000000   0.250000000
   0.000000000   0.000000000   0.750000000
   0.000000000   0.500000000   0.250382084
   0.000000000   0.500000000   0.749617916
   0.500000000   0.000000000   0.249617916
   0.500000000   0.000000000   0.750382084
   0.500000000   0.500000000   0.250000000
   0.500000000   0.500000000   0.750000000
Mg28Ni4O32
   1.00000000
   8.490482678   0.000000000   0.000000000
   0.000000000   8.490482678  -0.000000000
   0.000000000  -0.000000000   8.489744473
  Ni  Mg  O
  4  28  32
Direct configuration=     9
   0.000000000   0.000000000   0.000000000
   0.000000000   0.000000000   0.500000000
   0.000000000   0.500000000   0.000000000
   0.500000000   0.000000000   0.500000000
   0.000000000   0.500000000   0.500000000
   0.500000000   0.000000000   0.000000000
   0.500000000   0.500000000   0.000000000
   0.500000000   0.500000000   0.500000000
   0.000000000   0.248723415   0.249852190
   0.000000000   0.248723415   0.750147810
   0.000000000   0.751276585   0.249852190
   0.000000000   0.751276585   0.750147810
   0.500000000   0.248947899   0.250084278
   0.500000000   0.248947899   0.749915722
   0.500000000   0.751052101   0.250084278
   0.500000000   0.751052101   0.749915722
   0.248723415   0.000000000   0.250147810
   0.248723415   0.000000000   0.749852190
   0.248947899   0.500000000   0.249915722
   0.248947899   0.500000000   0.750084278
   0.751276585   0.000000000   0.250147810
   0.751276585   0.000000000   0.749852190
   0.751052101   0.500000000   0.249915722
   0.751052101   0.500000000   0.750084278
   0.248831523   0.248738791   0.000000000
   0.248738791   0.248831523   0.500000000
   0.248831523   0.751261209   0.000000000
   0.248738791   0.751168477   0.500000000
   0.751168477   0.248738791   0.000000000
   0.751261209   0.248831523   0.500000000
   0.751168477   0.751261209   0.000000000
   0.751261209   0.751168477   0.500000000
   0.248702161   0.248702161   0.250000000
   0.248702161   0.248702161   0.750000000
   0.248702161   0.751297839   0.250000000
   0.248702161   0.751297839   0.750000000
   0.751297839   0.248702161   0.250000000
   0.751297839   0.248702161   0.750000000
   0.751297839   0.751297839   0.250000000
   0.751297839   0.751297839   0.750000000
   0.250766390   0.000000000   0.000000000
   0.247676559   0.000000000   0.500000000
   0.248001483   0.500000000   0.000000000
   0.250051813   0.500000000   0.500000000
   0.749233610   0.000000000   0.000000000
   0.752323441   0.000000000   0.500000000
   0.751998517   0.500000000   0.000000000
   0.749948187   0.500000000   0.500000000
   0.000000000   0.247676559   0.000000000
   0.000000000   0.250766390   0.500000000
   0.000000000   0.752323441   0.000000000
   0.000000000   0.749233610   0.500000000
   0.500000000   0.250051813   0.000000000
   0.500000000   0.248001483   0.500000000
   0.500000000   0.749948187   0.000000000
   0.500000000   0.751998517   0.500000000
   0.000000000   0.000000000   0.250000000
   0.000000000   0.000000000   0.750000000
   0.000000000   0.500000000   0.250090614
   0.000000000   0.500000000   0.749909386
   0.500000000   0.000000000   0.249909386
   0.500000000   0.000000000   0.750090614
   0.500000000   0.500000000   0.250000000
   0.500000000   0.500000000   0.750000000
Mg28Ni4O32
   1.00000000
   8.498138488   0.000000000   0.000000000
   0.000000000   8.498138488  -0.000000000
   0.000000000  -0.000000000   8.497263951
  Ni  Mg  O
  4  28  32
Direct configuration=     10
   0.000000000   0.000000000   0.000000000
   0.000000000   0.000000000   0.500000000
   0.000000000   0.500000000   0.000000000
   0.500000000   0.000000000   0.500000000
   0.000000000   0.500000000   0.500000000
   0.500000000   0.000000000   0.000000000
   0.500000000   0.500000000   0.000000000
   0.500000000   0.500000000   0.500000000
   0.000000000   0.249117282   0.249646819
   0.000000000   0.249117282   0.750353181
   0.000000000   0.750882718   0.249646819
   0.000000000   0.750882718   0.750353181
   0.500000000   0.249241580   0.250400578
   0.500000000   0.249241580   0.749599422
   0.500000000   0.750758420   0.250400578
   0.500000000   0.750758420   0.749599422
   0.249117282   0.000000000   0.250353181
   0.249117282   0.000000000   0.749646819
   0.249241580   0.500000000   0.249599422
   0.249241580   0.500000000   0.750400578
   0.750882718   0.000000000   0.250353181
   0.750882718   0.000000000   0.749646819
   0.750758420   0.500000000   0.249599422
   0.750758420   0.500000000   0.750400578
   0.248860678   0.249355886   0.000000000
   0.249355886   0.248860678   0.500000000
   0.248860678   0.750644114   0.000000000
   0.249355886   0.751139322   0.500000000
   0.751139322   0.249355886   0.000000000
   0.750644114   0.248860678   0.500000000
   0.751139322   0.750644114   0.000000000
   0.750644114   0.751139322   0.500000000
   0.249345596   0.249345596   0.250000000
   0.249345596   0.249345596   0.750000000
   0.249345596   0.750654404   0.250000000
   0.249345596   0.750654404   0.750000000
   0.750654404   0.249345596   0.250000000
   0.750654404   0.249345596   0.750000000
   0.750654404   0.750654404   0.250000000
   0.750654404   0.750654404   0.750000000
   0.250880773   0.000000000   0.000000000
   0.247917943   0.000000000   0.500000000
   0.248220259   0.500000000   0.000000000
   0.249765851   0.500000000   0.500000000
   0.749119227   0.000000000   0.000000000
   0.752082057   0.000000000   0.500000000
   0.751779741   0.500000000   0.000000000
   0.750234149   0.500000000   0.500000000
   0.000000000   0.247917943   0.000000000
   0.000000000   0.250880773   0.500000000
   0.000000000   0.752082057   0.000000000
   0.000000000   0.749119227   0.500000000
   0.500000000   0.249765851   0.000000000
   0.500000000   0.248220259   0.500000000
   0.500000000   0.750234149   0.000000000
   0.500000000   0.751779741   0.500000000
   0.000000000   0.000000000   0.250000000
   0.000000000   0.000000000   0.750000000
   0.000000000   0.500000000   0.250225512
   0.000000000   0.500000000   0.749774488
   0.500000000   0.000000000   0.249774488
   0.500000000   0.000000000   0.750225512
   0.500000000   0.500000000   0.250000000
   0.500000000   0.500000000   0.750000000
Mg28Ni4O32
   1.00000000
   8.500320477   0.000000000   0.000000000
   0.000000000   8.500320477  -0.000000000
   0.000000000  -0.000000000   8.499400704
  Ni  Mg  O
  4  28  32
Direct configuration=     11
   0.000000000   0.000000000   0.000000000
   0.000000000   0.000000000   0.500000000
   0.000000000   0.500000000   0.000000000
   0.500000000   0.000000000   0.500000000