********************************************************************************
*                       GENERAL UTILITY LATTICE PROGRAM                        *
*                                 Julian Gale                                  *
*                       Curtin Institute for Computation                       *
*                    School of Molecular and Life Sciences                     *
*                    Curtin University, Western Australia                      *
********************************************************************************
* Version = 6.4.0 * Last modified =  22nd December 2025                        *
********************************************************************************
*  optimise     - perform optimisation run                                     *
*  conp         - constant pressure calculation                                *
********************************************************************************
*  Al/Fe substitutions in LaFeO3  perovskite - configuration 1                 *
********************************************************************************


  Job Started  at 17:31.37  5th April      2026                               

  Number of CPUs =     1


  Total number of configurations input =      1

********************************************************************************
*  Input for Configuration =   1                                               *
********************************************************************************

  Formula = La8Al4Fe4O24

  Number of irreducible atoms/shells =      80


  Total number atoms/shells =      80

  Dimensionality = 3               :  Bulk   



  Cartesian lattice vectors (Angstroms) :

        7.400000    0.000000    0.000000
        0.000000    7.400000    0.000000
        0.000000    0.000000    7.400000

  Cell parameters (Angstroms/Degrees):

  a =       7.4000    alpha =  90.0000
  b =       7.4000    beta  =  90.0000
  c =       7.4000    gamma =  90.0000

  Initial cell volume =         405.224000 Angs**3

  Temperature of configuration =   0.00     K 

  Pressure of configuration =         0.000 GPa 

  Fractional coordinates of asymmetric unit :

--------------------------------------------------------------------------------
   No.  Atomic       x           y          z         Charge      Occupancy
        Label      (Frac)      (Frac)     (Frac)        (e)         (Frac)  
--------------------------------------------------------------------------------
      1 La    c    0.000000    0.000000    0.000000     5.14900    1.000000    
      2 La    c    0.000000 *  0.000000 *  0.500000 *   5.14900    1.000000    
      3 La    c    0.000000 *  0.500000 *  0.000000 *   5.14900    1.000000    
      4 La    c    0.000000 *  0.500000 *  0.500000 *   5.14900    1.000000    
      5 La    c    0.500000 *  0.000000 *  0.000000 *   5.14900    1.000000    
      6 La    c    0.500000 *  0.000000 *  0.500000 *   5.14900    1.000000    
      7 La    c    0.500000 *  0.500000 *  0.000000 *   5.14900    1.000000    
      8 La    c    0.500000 *  0.500000 *  0.500000 *   5.14900    1.000000    
      9 Al    c    0.250000 *  0.250000 *  0.250000 *   0.04300    1.000000    
     10 Al    c    0.250000 *  0.250000 *  0.750000 *   0.04300    1.000000    
     11 Al    c    0.250000 *  0.750000 *  0.250000 *   0.04300    1.000000    
     12 Al    c    0.250000 *  0.750000 *  0.750000 *   0.04300    1.000000    
     13 Fe    c    0.750000 *  0.250000 *  0.250000 *   1.97100    1.000000    
     14 Fe    c    0.750000 *  0.250000 *  0.750000 *   1.97100    1.000000    
     15 Fe    c    0.750000 *  0.750000 *  0.250000 *   1.97100    1.000000    
     16 Fe    c    0.750000 *  0.750000 *  0.750000 *   1.97100    1.000000    
     17 O     c    0.250000 *  0.250000 *  0.000000 *   0.51300    1.000000    
     18 O     c    0.250000 *  0.250000 *  0.500000 *   0.51300    1.000000    
     19 O     c    0.250000 *  0.750000 *  0.000000 *   0.51300    1.000000    
     20 O     c    0.250000 *  0.750000 *  0.500000 *   0.51300    1.000000    
     21 O     c    0.750000 *  0.250000 *  0.000000 *   0.51300    1.000000    
     22 O     c    0.750000 *  0.250000 *  0.500000 *   0.51300    1.000000    
     23 O     c    0.750000 *  0.750000 *  0.000000 *   0.51300    1.000000    
     24 O     c    0.750000 *  0.750000 *  0.500000 *   0.51300    1.000000    
     25 O     c    0.000000 *  0.250000 *  0.250000 *   0.51300    1.000000    
     26 O     c    0.000000 *  0.250000 *  0.750000 *   0.51300    1.000000    
     27 O     c    0.000000 *  0.750000 *  0.250000 *   0.51300    1.000000    
     28 O     c    0.000000 *  0.750000 *  0.750000 *   0.51300    1.000000    
     29 O     c    0.500000 *  0.250000 *  0.250000 *   0.51300    1.000000    
     30 O     c    0.500000 *  0.250000 *  0.750000 *   0.51300    1.000000    
     31 O     c    0.500000 *  0.750000 *  0.250000 *   0.51300    1.000000    
     32 O     c    0.500000 *  0.750000 *  0.750000 *   0.51300    1.000000    
     33 O     c    0.250000 *  0.000000 *  0.250000 *   0.51300    1.000000    
     34 O     c    0.250000 *  0.000000 *  0.750000 *   0.51300    1.000000    
     35 O     c    0.250000 *  0.500000 *  0.250000 *   0.51300    1.000000    
     36 O     c    0.250000 *  0.500000 *  0.750000 *   0.51300    1.000000    
     37 O     c    0.750000 *  0.000000 *  0.250000 *   0.51300    1.000000    
     38 O     c    0.750000 *  0.000000 *  0.750000 *   0.51300    1.000000    
     39 O     c    0.750000 *  0.500000 *  0.250000 *   0.51300    1.000000    
     40 O     c    0.750000 *  0.500000 *  0.750000 *   0.51300    1.000000    
     41 La    s    0.000000 *  0.000000 *  0.000000 *  -2.14900    1.000000    
     42 La    s    0.000000 *  0.000000 *  0.500000 *  -2.14900    1.000000    
     43 La    s    0.000000 *  0.500000 *  0.000000 *  -2.14900    1.000000    
     44 La    s    0.000000 *  0.500000 *  0.500000 *  -2.14900    1.000000    
     45 La    s    0.500000 *  0.000000 *  0.000000 *  -2.14900    1.000000    
     46 La    s    0.500000 *  0.000000 *  0.500000 *  -2.14900    1.000000    
     47 La    s    0.500000 *  0.500000 *  0.000000 *  -2.14900    1.000000    
     48 La    s    0.500000 *  0.500000 *  0.500000 *  -2.14900    1.000000    
     49 Al    s    0.250000 *  0.250000 *  0.250000 *   2.95700    1.000000    
     50 Al    s    0.250000 *  0.250000 *  0.750000 *   2.95700    1.000000    
     51 Al    s    0.250000 *  0.750000 *  0.250000 *   2.95700    1.000000    
     52 Al    s    0.250000 *  0.750000 *  0.750000 *   2.95700    1.000000    
     53 Fe    s    0.750000 *  0.250000 *  0.250000 *   1.02900    1.000000    
     54 Fe    s    0.750000 *  0.250000 *  0.750000 *   1.02900    1.000000    
     55 Fe    s    0.750000 *  0.750000 *  0.250000 *   1.02900    1.000000    
     56 Fe    s    0.750000 *  0.750000 *  0.750000 *   1.02900    1.000000    
     57 O     s    0.250000 *  0.250000 *  0.000000 *  -2.51300    1.000000    
     58 O     s    0.250000 *  0.250000 *  0.500000 *  -2.51300    1.000000    
     59 O     s    0.250000 *  0.750000 *  0.000000 *  -2.51300    1.000000    
     60 O     s    0.250000 *  0.750000 *  0.500000 *  -2.51300    1.000000    
     61 O     s    0.750000 *  0.250000 *  0.000000 *  -2.51300    1.000000    
     62 O     s    0.750000 *  0.250000 *  0.500000 *  -2.51300    1.000000    
     63 O     s    0.750000 *  0.750000 *  0.000000 *  -2.51300    1.000000    
     64 O     s    0.750000 *  0.750000 *  0.500000 *  -2.51300    1.000000    
     65 O     s    0.000000 *  0.250000 *  0.250000 *  -2.51300    1.000000    
     66 O     s    0.000000 *  0.250000 *  0.750000 *  -2.51300    1.000000    
     67 O     s    0.000000 *  0.750000 *  0.250000 *  -2.51300    1.000000    
     68 O     s    0.000000 *  0.750000 *  0.750000 *  -2.51300    1.000000    
     69 O     s    0.500000 *  0.250000 *  0.250000 *  -2.51300    1.000000    
     70 O     s    0.500000 *  0.250000 *  0.750000 *  -2.51300    1.000000    
     71 O     s    0.500000 *  0.750000 *  0.250000 *  -2.51300    1.000000    
     72 O     s    0.500000 *  0.750000 *  0.750000 *  -2.51300    1.000000    
     73 O     s    0.250000 *  0.000000 *  0.250000 *  -2.51300    1.000000    
     74 O     s    0.250000 *  0.000000 *  0.750000 *  -2.51300    1.000000    
     75 O     s    0.250000 *  0.500000 *  0.250000 *  -2.51300    1.000000    
     76 O     s    0.250000 *  0.500000 *  0.750000 *  -2.51300    1.000000    
     77 O     s    0.750000 *  0.000000 *  0.250000 *  -2.51300    1.000000    
     78 O     s    0.750000 *  0.000000 *  0.750000 *  -2.51300    1.000000    
     79 O     s    0.750000 *  0.500000 *  0.250000 *  -2.51300    1.000000    
     80 O     s    0.750000 *  0.500000 *  0.750000 *  -2.51300    1.000000    
--------------------------------------------------------------------------------



********************************************************************************
*  General input information                                                   *
********************************************************************************

  Species output for all configurations : 

--------------------------------------------------------------------------------
  Species    Type    Atomic    Atomic    Charge       Radii (Angs)     Library
                     Number     Mass       (e)     Cova   Ionic  VDW   Symbol
--------------------------------------------------------------------------------
    Fe       Core       26      55.85   1.971000   1.340  0.000  2.000          
    Fe       Shell      26       0.00   1.029000   1.340  0.000  2.000          
    Al       Core       13      26.98   0.043000   1.350  0.000  2.050          
    Al       Shell      13       0.00   2.957000   1.350  0.000  2.050          
    La       Core       57     138.91   5.149000   1.870  0.000  2.790          
    La       Shell      57       0.00  -2.149000   1.870  0.000  2.790          
    O        Core        8      16.00   0.513000   0.730  0.000  1.360          
    O        Shell       8       0.00  -2.513000   0.730  0.000  1.360          
--------------------------------------------------------------------------------


  Lattice summation method               =    Ewald          (3-D)
                                         =    Parry          (2-D)
                                         =    Saunders et al (1-D)
  Accuracy factor for lattice sums       =   12.000


  Analytic derivatives to be used

  Time limit = Infinity

  Maximum range for interatomic potentials =    100000.000000 Angstroms

  General interatomic potentials :

--------------------------------------------------------------------------------
Atom  Types   Potential      Parameter       Value         Units   Cutoffs(Ang)
  1     2                                                            Min /  Max 
--------------------------------------------------------------------------------
O    s Fe   s Buckingham    Buckingham A     3219.3350    eV        0.000 10.000
                            Buckingham rho  0.26410000    Ang       
                            Buckingham C     0.0000000    eV*Ang^6  
--------------------------------------------------------------------------------
O    s Al   s Buckingham    Buckingham A     2409.5050    eV        0.000 10.000
                            Buckingham rho  0.26490000    Ang       
                            Buckingham C     0.0000000    eV*Ang^6  
--------------------------------------------------------------------------------
O    s La   s Buckingham    Buckingham A     5436.8270    eV        0.000 10.000
                            Buckingham rho  0.29390000    Ang       
                            Buckingham C     0.0000000    eV*Ang^6  
--------------------------------------------------------------------------------
O    s O    s Buckingham    Buckingham A     25.410000    eV        0.000 12.000
                            Buckingham rho  0.69370000    Ang       
                            Buckingham C     32.320000    eV*Ang^6  
--------------------------------------------------------------------------------
Fe   c Fe   s Spring (c-s)  Spring k 2       179.58000    eV*Ang^-2 0.000  0.800
                            Spring k 4       0.0000000    eV*Ang^-4 
--------------------------------------------------------------------------------
Al   c Al   s Spring (c-s)  Spring k 2       403.98000    eV*Ang^-2 0.000  0.800
                            Spring k 4       0.0000000    eV*Ang^-4 
--------------------------------------------------------------------------------
La   c La   s Spring (c-s)  Spring k 2       173.90000    eV*Ang^-2 0.000  0.800
                            Spring k 4       0.0000000    eV*Ang^-4 
--------------------------------------------------------------------------------
O    c O    s Spring (c-s)  Spring k 2       20.530000    eV*Ang^-2 0.000  0.800
                            Spring k 4       0.0000000    eV*Ang^-4 
--------------------------------------------------------------------------------

********************************************************************************
*  Output for configuration   1                                                *
********************************************************************************


  Components of energy : 

--------------------------------------------------------------------------------
  Interatomic potentials     =         259.03555808 eV    
  Monopole - monopole (real) =        -714.63043649 eV    
  Monopole - monopole (recip)=        -672.57146413 eV    
  Monopole - monopole (total)=       -1387.20190062 eV    
--------------------------------------------------------------------------------
  Total lattice energy       =       -1128.16634254 eV    
--------------------------------------------------------------------------------
  Total lattice energy       =         -108850.8065 kJ/(mole unit cells)
--------------------------------------------------------------------------------


  Number of variables =      243

  Maximum number of calculations  =          1000
  Maximum Hessian update interval =            10
  Maximum step size               =   1.000000000
  Maximum parameter tolerance     =   0.000010000
  Maximum function  tolerance     =   0.000010000
  Maximum gradient  tolerance     =   0.001000000
  Maximum gradient  component     =   0.010000000

  Symmetry not applied to optimisation

  Cell parameters to be optimised using strains

  Newton-Raphson optimiser to be used

  BFGS hessian update to be used

  Hessian eigenvalue shifts to be used to ensure all values are positive

  Lower half triangular hessian to be used

  Start of bulk optimisation :

  Cycle:      0 Energy:     -1128.166343  Gnorm:      0.934458  CPU:    0.038
  ** Hessian lowest eigenvalue is negative =  -1.723E+01
  ** Hessian calculated **
  Cycle:      1 Energy:     -1136.903568  Gnorm:      0.056342  CPU:    0.067
  Cycle:      2 Energy:     -1136.953832  Gnorm:      0.012747  CPU:    0.088
  Cycle:      3 Energy:     -1136.956184  Gnorm:      0.006352  CPU:    0.108
  Cycle:      4 Energy:     -1136.961303  Gnorm:      0.021162  CPU:    0.153
  Cycle:      5 Energy:     -1136.963113  Gnorm:      0.042459  CPU:    0.173
  Cycle:      6 Energy:     -1136.980822  Gnorm:      0.046510  CPU:    0.206
  Cycle:      7 Energy:     -1136.989632  Gnorm:      0.048096  CPU:    0.227
  Cycle:      8 Energy:     -1137.004288  Gnorm:      0.046260  CPU:    0.247
  Cycle:      9 Energy:     -1137.017470  Gnorm:      0.010899  CPU:    0.272
  Cycle:     10 Energy:     -1137.019548  Gnorm:      0.007271  CPU:    0.292
  ** Hessian lowest eigenvalue is negative =  -1.794E+01
  ** Hessian calculated **
  Cycle:     11 Energy:     -1137.023283  Gnorm:      0.003859  CPU:    0.349
  Cycle:     12 Energy:     -1137.023741  Gnorm:      0.001811  CPU:    0.369
  Cycle:     13 Energy:     -1137.024210  Gnorm:      0.001016  CPU:    0.393
  Cycle:     14 Energy:     -1137.028007  Gnorm:      0.006950  CPU:    0.435
  Cycle:     15 Energy:     -1137.047330  Gnorm:      0.031137  CPU:    0.472
  Cycle:     16 Energy:     -1137.070853  Gnorm:      0.062322  CPU:    0.501
  Cycle:     17 Energy:     -1137.083597  Gnorm:      0.070530  CPU:    0.525
  Cycle:     18 Energy:     -1137.098073  Gnorm:      0.029047  CPU:    0.550
  Cycle:     19 Energy:     -1137.109171  Gnorm:      0.016328  CPU:    0.574
  Cycle:     20 Energy:     -1137.115215  Gnorm:      0.010385  CPU:    0.594
  ** Hessian lowest eigenvalue is negative =  -6.195E-02
  ** Hessian calculated **
  Cycle:     21 Energy:     -1137.122698  Gnorm:      0.005901  CPU:    0.650
  Cycle:     22 Energy:     -1137.123531  Gnorm:      0.003198  CPU:    0.670
  Cycle:     23 Energy:     -1137.123959  Gnorm:      0.001847  CPU:    0.699
  Cycle:     24 Energy:     -1137.123960  Gnorm:      0.001781  CPU:    0.724
  Cycle:     25 Energy:     -1137.124061  Gnorm:      0.000783  CPU:    0.749
  Cycle:     26 Energy:     -1137.124061  Gnorm:      0.000764  CPU:    0.786
  Cycle:     27 Energy:     -1137.124063  Gnorm:      0.000715  CPU:    0.815
  Cycle:     28 Energy:     -1137.124063  Gnorm:      0.000702  CPU:    0.857
  Cycle:     29 Energy:     -1137.124064  Gnorm:      0.000696  CPU:    0.898
  Cycle:     30 Energy:     -1137.124064  Gnorm:      0.000695  CPU:    0.940
  ** Hessian lowest eigenvalue is negative =  -1.967E+00
  ** Hessian calculated **
  Cycle:     31 Energy:     -1137.123984  Gnorm:      0.000663  CPU:    1.047
  ** Hessian lowest eigenvalue is negative =  -1.978E+00
  ** Hessian calculated **
  Cycle:     32 Energy:     -1137.123992  Gnorm:      0.000166  CPU:    1.108
  Cycle:     33 Energy:     -1137.123992  Gnorm:      0.000164  CPU:    1.149
  Cycle:     34 Energy:     -1137.123992  Gnorm:      0.000162  CPU:    1.191
  Cycle:     35 Energy:     -1137.123992  Gnorm:      0.000162  CPU:    1.220
  Cycle:     36 Energy:     -1137.123992  Gnorm:      0.000161  CPU:    1.240
  Cycle:     37 Energy:     -1137.123992  Gnorm:      0.000161  CPU:    1.265
  Cycle:     38 Energy:     -1137.123992  Gnorm:      0.000161  CPU:    1.290
  Cycle:     39 Energy:     -1137.123992  Gnorm:      0.000161  CPU:    1.314
  Cycle:     40 Energy:     -1137.123992  Gnorm:      0.000161  CPU:    1.330
  Cycle:     41 Energy:     -1137.123992  Gnorm:      0.000161  CPU:    1.346
  ** Hessian lowest eigenvalue is negative =  -1.966E+00
  ** Hessian calculated **
  Cycle:     42 Energy:     -1137.123972  Gnorm:      0.000161  CPU:    1.432
  ** Hessian lowest eigenvalue is negative =  -1.966E+00
  ** Hessian calculated **
  Cycle:     43 Energy:     -1137.123991  Gnorm:      0.000201  CPU:    1.484
  Cycle:     44 Energy:     -1137.123991  Gnorm:      0.000192  CPU:    1.508
  Cycle:     45 Energy:     -1137.123991  Gnorm:      0.000188  CPU:    1.528
  Cycle:     46 Energy:     -1137.123991  Gnorm:      0.000186  CPU:    1.548
  Cycle:     47 Energy:     -1137.123992  Gnorm:      0.000186  CPU:    1.568
  Cycle:     48 Energy:     -1137.123992  Gnorm:      0.000185  CPU:    1.588
  Cycle:     49 Energy:     -1137.123992  Gnorm:      0.000185  CPU:    1.608
  Cycle:     50 Energy:     -1137.123992  Gnorm:      0.000185  CPU:    1.624
  Cycle:     51 Energy:     -1137.123992  Gnorm:      0.000185  CPU:    1.640
  Cycle:     52 Energy:     -1137.123992  Gnorm:      0.000185  CPU:    1.656
  ** Hessian lowest eigenvalue is negative =  -1.967E+00
  ** Hessian calculated **
  Cycle:     53 Energy:     -1137.123992  Gnorm:      0.000185  CPU:    1.765
  ** Hessian lowest eigenvalue is negative =  -1.967E+00
  ** Hessian calculated **
  Cycle:     54 Energy:     -1137.123991  Gnorm:      0.000196  CPU:    1.851
  Cycle:     55 Energy:     -1137.123991  Gnorm:      0.000194  CPU:    1.871
  Cycle:     56 Energy:     -1137.123991  Gnorm:      0.000193  CPU:    1.891
  Cycle:     57 Energy:     -1137.123991  Gnorm:      0.000192  CPU:    1.911
  Cycle:     58 Energy:     -1137.123991  Gnorm:      0.000192  CPU:    1.931
  Cycle:     59 Energy:     -1137.123991  Gnorm:      0.000192  CPU:    1.951
  Cycle:     60 Energy:     -1137.123991  Gnorm:      0.000192  CPU:    1.967
  Cycle:     61 Energy:     -1137.123991  Gnorm:      0.000192  CPU:    1.982
  Cycle:     62 Energy:     -1137.123991  Gnorm:      0.000192  CPU:    1.998
  Cycle:     63 Energy:     -1137.123991  Gnorm:      0.000192  CPU:    2.014
  ** Hessian lowest eigenvalue is negative =  -1.967E+00
  ** Hessian calculated **
  Cycle:     64 Energy:     -1137.123992  Gnorm:      0.000182  CPU:    2.121
  Cycle:     65 Energy:     -1137.123992  Gnorm:      0.000182  CPU:    2.198
  ** Hessian lowest eigenvalue is negative =  -1.967E+00
  ** Hessian calculated **
  Cycle:     66 Energy:     -1137.123992  Gnorm:      0.000185  CPU:    2.285
  Cycle:     67 Energy:     -1137.123992  Gnorm:      0.000183  CPU:    2.305
  Cycle:     68 Energy:     -1137.123992  Gnorm:      0.000183  CPU:    2.325
  Cycle:     69 Energy:     -1137.123992  Gnorm:      0.000183  CPU:    2.363
  Cycle:     70 Energy:     -1137.123992  Gnorm:      0.000182  CPU:    2.387
  Cycle:     71 Energy:     -1137.123992  Gnorm:      0.000182  CPU:    2.407
  Cycle:     72 Energy:     -1137.123992  Gnorm:      0.000182  CPU:    2.431
  Cycle:     73 Energy:     -1137.123992  Gnorm:      0.000182  CPU:    2.447
  Cycle:     74 Energy:     -1137.123992  Gnorm:      0.000182  CPU:    2.463
  Cycle:     75 Energy:     -1137.123992  Gnorm:      0.000182  CPU:    2.479
  ** Hessian lowest eigenvalue is negative =  -1.967E+00
  ** Hessian calculated **
  Cycle:     76 Energy:     -1137.123992  Gnorm:      0.000182  CPU:    2.586
  ** Hessian lowest eigenvalue is negative =  -1.967E+00
  ** Hessian calculated **
  Cycle:     77 Energy:     -1137.123991  Gnorm:      0.000194  CPU:    2.672
  Cycle:     78 Energy:     -1137.123991  Gnorm:      0.000191  CPU:    2.692
  Cycle:     79 Energy:     -1137.123992  Gnorm:      0.000190  CPU:    2.712
  Cycle:     80 Energy:     -1137.123992  Gnorm:      0.000189  CPU:    2.732
  Cycle:     81 Energy:     -1137.123992  Gnorm:      0.000189  CPU:    2.752
  Cycle:     82 Energy:     -1137.123992  Gnorm:      0.000189  CPU:    2.772
  Cycle:     83 Energy:     -1137.123992  Gnorm:      0.000189  CPU:    2.788
  Cycle:     84 Energy:     -1137.123992  Gnorm:      0.000189  CPU:    2.803
  Cycle:     85 Energy:     -1137.123992  Gnorm:      0.000189  CPU:    2.819
  Cycle:     86 Energy:     -1137.123992  Gnorm:      0.000189  CPU:    2.835
  ** Hessian lowest eigenvalue is negative =  -1.967E+00
  ** Hessian calculated **
  Cycle:     87 Energy:     -1137.123992  Gnorm:      0.000189  CPU:    2.944
  ** Hessian lowest eigenvalue is negative =  -1.967E+00
  ** Hessian calculated **
  Cycle:     88 Energy:     -1137.123991  Gnorm:      0.000200  CPU:    3.030
  Cycle:     89 Energy:     -1137.123991  Gnorm:      0.000197  CPU:    3.050
  Cycle:     90 Energy:     -1137.123991  Gnorm:      0.000196  CPU:    3.070
  Cycle:     91 Energy:     -1137.123991  Gnorm:      0.000195  CPU:    3.090
  Cycle:     92 Energy:     -1137.123991  Gnorm:      0.000195  CPU:    3.110
  Cycle:     93 Energy:     -1137.123991  Gnorm:      0.000195  CPU:    3.134
  Cycle:     94 Energy:     -1137.123991  Gnorm:      0.000195  CPU:    3.150
  Cycle:     95 Energy:     -1137.123991  Gnorm:      0.000195  CPU:    3.166
  Cycle:     96 Energy:     -1137.123991  Gnorm:      0.000195  CPU:    3.182
  Cycle:     97 Energy:     -1137.123991  Gnorm:      0.000195  CPU:    3.198
  ** Hessian lowest eigenvalue is negative =  -1.967E+00
  ** Hessian calculated **
  Cycle:     98 Energy:     -1137.123991  Gnorm:      0.000195  CPU:    3.307
  ** Hessian lowest eigenvalue is negative =  -1.967E+00
  ** Hessian calculated **


  **** Optimisation achieved ****


  Final energy =   -1137.12399145 eV      
  Final Gnorm  =       0.00019464

  Components of energy : 

--------------------------------------------------------------------------------
  Interatomic potentials     =         189.47342801 eV    
  Monopole - monopole (real) =         -87.44628265 eV    
  Monopole - monopole (recip)=       -1239.15113681 eV    
  Monopole - monopole (total)=       -1326.59741946 eV    
--------------------------------------------------------------------------------
  Total lattice energy       =       -1137.12399145 eV    
--------------------------------------------------------------------------------
  Total lattice energy       =         -109715.0826 kJ/(mole unit cells)
--------------------------------------------------------------------------------

  Final fractional coordinates of atoms :

--------------------------------------------------------------------------------
   No.  Atomic        x           y          z          Radius
        Label       (Frac)      (Frac)     (Frac)       (Angs) 
--------------------------------------------------------------------------------
     1  La    c     0.000000    0.000000    0.000000    0.000000
     2  La    c     0.000136    0.999990    0.500000    0.000000
     3  La    c     0.999880    0.499989    1.000000    0.000000
     4  La    c     0.000009    0.500004    0.500000    0.000000
     5  La    c     0.487508    0.999968    0.000000    0.000000
     6  La    c     0.487626    0.999982    0.500000    0.000000
     7  La    c     0.487358    0.499982    0.000000    0.000000
     8  La    c     0.487496    0.499966    0.500000    0.000000
     9  Al    c     0.243743    0.249986    0.249997    0.000000
    10  Al    c     0.243743    0.249986    0.750003    0.000000
    11  Al    c     0.243743    0.749991    0.249998    0.000000
    12  Al    c     0.243743    0.749991    0.750002    0.000000
    13  Fe    c     0.743744    0.249990    0.250000    0.000000
    14  Fe    c     0.743744    0.249990    0.750000    0.000000
    15  Fe    c     0.743744    0.749988    0.250000    0.000000
    16  Fe    c     0.743744    0.749988    0.750000    0.000000
    17  O     c     0.243541    0.253079    0.000000    0.000000
    18  O     c     0.243939    0.246904    0.500000    0.000000
    19  O     c     0.243449    0.746902    0.000000    0.000000
    20  O     c     0.244030    0.753078    0.500000    0.000000
    21  O     c     0.743992    0.213655    0.000000    0.000000
    22  O     c     0.743486    0.286321    0.500000    0.000000
    23  O     c     0.744083    0.786324    0.000000    0.000000
    24  O     c     0.743395    0.713659    0.500000    0.000000
    25  O     c     0.000465    0.250276    0.250210    0.000000
    26  O     c     0.000465    0.250277    0.749790    0.000000
    27  O     c     0.000465    0.749696    0.250309    0.000000
    28  O     c     0.000465    0.749696    0.749691    0.000000
    29  O     c     0.487018    0.249704    0.249788    0.000000
    30  O     c     0.487018    0.249704    0.750212    0.000000
    31  O     c     0.487018    0.750287    0.249687    0.000000
    32  O     c     0.487018    0.750287    0.750313    0.000000
    33  O     c     0.243457    0.999990    0.246913    0.000000
    34  O     c     0.243457    0.999990    0.753087    0.000000
    35  O     c     0.244022    0.499990    0.253084    0.000000
    36  O     c     0.244022    0.499990    0.746916    0.000000
    37  O     c     0.743977    0.999989    0.286330    0.000000
    38  O     c     0.743977    0.999989    0.713670    0.000000
    39  O     c     0.743502    0.499989    0.213673    0.000000
    40  O     c     0.743502    0.499989    0.786327    0.000000
    41  La    s     0.000079    0.999999    1.000000    0.000000
    42  La    s     0.000201    0.999991    0.500000    0.000000
    43  La    s     0.999962    0.499990    1.000000    0.000000
    44  La    s     0.000077    0.500002    0.500000    0.000000
    45  La    s     0.487435    0.999971    0.000000    0.000000
    46  La    s     0.487540    0.999982    0.500000    0.000000
    47  La    s     0.487290    0.499982    0.000000    0.000000
    48  La    s     0.487412    0.499969    0.500000    0.000000
    49  Al    s     0.243743    0.249986    0.249997    0.000000
    50  Al    s     0.243743    0.249986    0.750003    0.000000
    51  Al    s     0.243743    0.749991    0.249998    0.000000
    52  Al    s     0.243743    0.749991    0.750002    0.000000
    53  Fe    s     0.743744    0.249990    0.250000    0.000000
    54  Fe    s     0.743744    0.249990    0.750000    0.000000
    55  Fe    s     0.743743    0.749988    0.250000    0.000000
    56  Fe    s     0.743743    0.749988    0.750000    0.000000
    57  O     s     0.243537    0.253319    0.000000    0.000000
    58  O     s     0.243941    0.246667    0.500000    0.000000
    59  O     s     0.243442    0.746664    0.000000    0.000000
    60  O     s     0.244035    0.753316    0.500000    0.000000
    61  O     s     0.744012    0.213097    0.000000    0.000000
    62  O     s     0.743463    0.286879    0.500000    0.000000
    63  O     s     0.744104    0.786883    0.000000    0.000000
    64  O     s     0.743372    0.713102    0.500000    0.000000
    65  O     s     0.002793    0.250285    0.250215    0.000000
    66  O     s     0.002793    0.250285    0.749785    0.000000
    67  O     s     0.002793    0.749685    0.250319    0.000000
    68  O     s     0.002793    0.749685    0.749681    0.000000
    69  O     s     0.484689    0.249696    0.249783    0.000000
    70  O     s     0.484689    0.249696    0.750217    0.000000
    71  O     s     0.484689    0.750299    0.249676    0.000000
    72  O     s     0.484689    0.750300    0.750324    0.000000
    73  O     s     0.243427    0.999991    0.246676    0.000000
    74  O     s     0.243426    0.999991    0.753324    0.000000
    75  O     s     0.244051    0.499991    0.253322    0.000000
    76  O     s     0.244051    0.499991    0.746678    0.000000
    77  O     s     0.743971    0.999989    0.286889    0.000000
    78  O     s     0.743971    0.999989    0.713111    0.000000
    79  O     s     0.743506    0.499990    0.213114    0.000000
    80  O     s     0.743505    0.499990    0.786886    0.000000
--------------------------------------------------------------------------------

  Final Cartesian lattice vectors (Angstroms) :

        7.724255    0.000032   -0.000000
        0.000032    7.755572    0.000000
       -0.000000    0.000000    7.755574


  Final cell parameters and derivatives :

--------------------------------------------------------------------------------
       a            7.724255 Angstrom     dE/de1(xx)    -0.000131 eV/strain
       b            7.755572 Angstrom     dE/de2(yy)    -0.001169 eV/strain
       c            7.755574 Angstrom     dE/de3(zz)     0.000720 eV/strain
       alpha       90.000000 Degrees      dE/de4(yz)     0.000000 eV/strain
       beta        90.000000 Degrees      dE/de5(xz)    -0.000030 eV/strain
       gamma       89.999525 Degrees      dE/de6(xy)     0.003675 eV/strain
--------------------------------------------------------------------------------

  Primitive cell volume =           464.605559 Angs**3

  Density of cell =      6.528525 g/cm**3

  Non-primitive cell volume =           464.605559 Angs**3


  Final internal derivatives :

--------------------------------------------------------------------------------
   No.  Atomic          a             b             c           Radius
        Label          (eV)          (eV)          (eV)        (eV/Angs)
--------------------------------------------------------------------------------
      1 La    c       0.000000      0.000000      0.000000      0.000000
      2 La    c      -0.002219      0.000540      0.000001      0.000000
      3 La    c      -0.011802      0.000574      0.000001      0.000000
      4 La    c      -0.003329      0.000479     -0.000004      0.000000
      5 La    c      -0.010575     -0.000438      0.000004      0.000000
      6 La    c       0.004324     -0.000531     -0.000001      0.000000
      7 La    c       0.001842     -0.000496     -0.000001      0.000000
      8 La    c      -0.005610      0.000623      0.000004      0.000000
      9 Al    c      -0.000068      0.000115      0.000059      0.000000
     10 Al    c      -0.000068      0.000115     -0.000060      0.000000
     11 Al    c      -0.000077     -0.000007      0.000063      0.000000
     12 Al    c      -0.000077     -0.000007     -0.000063      0.000000
     13 Fe    c       0.001851     -0.001813     -0.001613      0.000000
     14 Fe    c       0.001851     -0.001813      0.001613      0.000000
     15 Fe    c       0.001853      0.001845     -0.001612      0.000000
     16 Fe    c       0.001853      0.001845      0.001612      0.000000
     17 O     c      -0.000535     -0.001212     -0.000000      0.000000
     18 O     c      -0.000265      0.000885     -0.000000      0.000000
     19 O     c      -0.000355      0.001255     -0.000000      0.000000
     20 O     c      -0.000441     -0.000877     -0.000000      0.000000
     21 O     c       0.001603     -0.000505     -0.000000      0.000000
     22 O     c      -0.001431     -0.001015      0.000000      0.000000
     23 O     c       0.001139      0.000530     -0.000000      0.000000
     24 O     c      -0.000969      0.001049     -0.000000      0.000000
     25 O     c      -0.000251      0.000094     -0.000044      0.000000
     26 O     c      -0.000251      0.000093      0.000044      0.000000
     27 O     c      -0.000250     -0.000028     -0.000196      0.000000
     28 O     c      -0.000250     -0.000028      0.000195      0.000000
     29 O     c       0.000374      0.000264      0.000621      0.000000
     30 O     c       0.000374      0.000265     -0.000621      0.000000
     31 O     c       0.000374     -0.000279      0.000775      0.000000
     32 O     c       0.000374     -0.000280     -0.000775      0.000000
     33 O     c       0.001304      0.000024      0.001742      0.000000
     34 O     c       0.001305      0.000024     -0.001742      0.000000
     35 O     c      -0.002235      0.000005     -0.002767      0.000000
     36 O     c      -0.002236      0.000005      0.002767      0.000000
     37 O     c      -0.001036      0.000031     -0.001994      0.000000
     38 O     c      -0.001039      0.000030      0.001994      0.000000
     39 O     c       0.001340      0.000000      0.001295      0.000000
     40 O     c       0.001344      0.000000     -0.001295      0.000000
     41 La    s      -0.022044      0.000883      0.000005      0.000000
     42 La    s       0.001235     -0.000672     -0.000002      0.000000
     43 La    s       0.014999     -0.000708     -0.000002      0.000000
     44 La    s       0.006004     -0.000548      0.000005      0.000000
     45 La    s       0.017622      0.000592     -0.000005      0.000000
     46 La    s      -0.004177      0.000753      0.000002      0.000000
     47 La    s      -0.002036      0.000710      0.000002      0.000000
     48 La    s       0.009799     -0.000834     -0.000005      0.000000
     49 Al    s      -0.001120     -0.000391     -0.001321      0.000000
     50 Al    s      -0.001120     -0.000391      0.001321      0.000000
     51 Al    s      -0.001110      0.000352     -0.001327      0.000000
     52 Al    s      -0.001110      0.000352      0.001327      0.000000
     53 Fe    s      -0.000740      0.001313      0.000610      0.000000
     54 Fe    s      -0.000740      0.001313     -0.000610      0.000000
     55 Fe    s      -0.000740     -0.001279      0.000608      0.000000
     56 Fe    s      -0.000740     -0.001279     -0.000608      0.000000
     57 O     s       0.001443      0.001113     -0.000000      0.000000
     58 O     s       0.000243     -0.000611      0.000000      0.000000
     59 O     s       0.001599     -0.001195     -0.000000      0.000000
     60 O     s       0.000091      0.000739      0.000000      0.000000
     61 O     s      -0.001704     -0.002370      0.000000      0.000000
     62 O     s      -0.001310      0.002588     -0.000000      0.000000
     63 O     s      -0.001695      0.002208     -0.000000      0.000000
     64 O     s      -0.001320     -0.002375     -0.000000      0.000000
     65 O     s       0.001336     -0.003578      0.002044      0.000000
     66 O     s       0.001336     -0.003579     -0.002042      0.000000
     67 O     s       0.001336      0.003438      0.001859      0.000000
     68 O     s       0.001336      0.003438     -0.001858      0.000000
     69 O     s      -0.001479      0.002832     -0.003711      0.000000
     70 O     s      -0.001479      0.002832      0.003709      0.000000
     71 O     s      -0.001477     -0.002644     -0.003520      0.000000
     72 O     s      -0.001477     -0.002645      0.003518      0.000000
     73 O     s      -0.005047     -0.000050     -0.001062      0.000000
     74 O     s      -0.005047     -0.000050      0.001062      0.000000
     75 O     s       0.006680      0.000076      0.002274      0.000000
     76 O     s       0.006679      0.000076     -0.002274      0.000000
     77 O     s       0.006052     -0.000064      0.001849      0.000000
     78 O     s       0.006052     -0.000064     -0.001849      0.000000
     79 O     s      -0.008379      0.000094      0.002404      0.000000
     80 O     s      -0.008380      0.000094     -0.002404      0.000000
--------------------------------------------------------------------------------
  Maximum abs         0.022044      0.003579      0.003711      0.000000
--------------------------------------------------------------------------------


  Time to end of optimisation =       3.3976 seconds


  Peak dynamic memory used =       3.39 MB 


  Timing analysis for GULP :

--------------------------------------------------------------------------------
  Task / Subroutine                                          Time (Seconds)
--------------------------------------------------------------------------------
  Calculation of reciprocal space energy and derivatives          0.2118
  Calculation of real space energy and derivatives                3.1003
  Calculation and manipulation of Hessian matrix                  0.0371
  Calculation of matrix inversion                                 0.0316
  Global summation overhead                                       0.0003
--------------------------------------------------------------------------------
  Total CPU time                                                  3.3976
--------------------------------------------------------------------------------


  Job Finished at 17:31.40  5th April      2026                               

