Mg28Ni4O32
   1.00000000
   8.440364483  -0.000000000   0.000000000
  -0.000000000   8.440345454   0.000000000
   0.000000000   0.000000000   8.440345454
  Ni  Mg  O
  4  28  32
Direct configuration=     1
   0.000000000   0.000000000   0.000187207
   0.000000000   0.000000000   0.499812793
   0.000000000   0.249812793   0.250000000
   0.000000000   0.750187207   0.250000000
   0.000000000   0.500000000   0.000169726
   0.000000000   0.500000000   0.499830274
   0.500000000   0.000000000   0.999929398
   0.500000000   0.000000000   0.500070602
   0.500000000   0.500000000   0.999959542
   0.500000000   0.500000000   0.500040458
   0.000000000   0.249830274   0.750000000
   0.000000000   0.750169726   0.750000000
   0.500000000   0.250070602   0.250000000
   0.500000000   0.250040458   0.750000000
   0.500000000   0.749929398   0.250000000
   0.500000000   0.749959542   0.750000000
   0.249543696   0.000000000   0.250000000
   0.249878451   0.000000000   0.750000000
   0.249878451   0.500000000   0.250000000
   0.249971088   0.500000000   0.750000000
   0.750456304   0.000000000   0.250000000
   0.750121549   0.000000000   0.750000000
   0.750121549   0.500000000   0.250000000
   0.750028912   0.500000000   0.750000000
   0.249815555   0.249949230   0.000050770
   0.249815555   0.249949230   0.499949230
   0.249815555   0.750050770   0.000050770
   0.249815555   0.750050770   0.499949230
   0.750184445   0.249949230   0.000050770
   0.750184445   0.249949230   0.499949230
   0.750184445   0.750050770   0.000050770
   0.750184445   0.750050770   0.499949230
   0.250056022   0.249941704   0.250000000
   0.249924726   0.249966522   0.750000000
   0.250056022   0.750058296   0.250000000
   0.249924726   0.750033478   0.750000000
   0.749943978   0.249941704   0.250000000
   0.750075274   0.249966522   0.750000000
   0.749943978   0.750058296   0.250000000
   0.750075274   0.750033478   0.750000000
   0.250056022   0.000000000   0.000058296
   0.250056022   0.000000000   0.499941704
   0.249924726   0.500000000   0.000033478
   0.249924726   0.500000000   0.499966522
   0.749943978   0.000000000   0.000058296
   0.749943978   0.000000000   0.499941704
   0.750075274   0.500000000   0.000033478
   0.750075274   0.500000000   0.499966522
   0.000000000   0.250004349   0.999995651
   0.000000000   0.250004349   0.500004349
   0.000000000   0.749995651   0.999995651
   0.000000000   0.749995651   0.500004349
   0.500000000   0.249891493   0.000108507
   0.500000000   0.249891493   0.499891493
   0.500000000   0.750108507   0.000108507
   0.500000000   0.750108507   0.499891493
   0.000000000   0.000000000   0.250000000
   0.000000000   0.000000000   0.750000000
   0.000000000   0.500000000   0.250000000
   0.000000000   0.500000000   0.750000000
   0.500000000   0.000000000   0.250000000
   0.500000000   0.000000000   0.750000000
   0.500000000   0.500000000   0.250000000
   0.500000000   0.500000000   0.750000000
Mg28Ni4O32
   1.00000000
   8.442929611  -0.000000000   0.000000000
  -0.000000000   8.442780280   0.000000000
   0.000000000   0.000000000   8.442780280
  Ni  Mg  O
  4  28  32
Direct configuration=     2
   0.000000000   0.000000000   0.001302733
   0.000000000   0.000000000   0.498697267
   0.000000000   0.248697267   0.250000000
   0.000000000   0.751302733   0.250000000
   0.000000000   0.500000000   0.001177998
   0.000000000   0.500000000   0.498822002
   0.500000000   0.000000000   0.999640758
   0.500000000   0.000000000   0.500359242
   0.500000000   0.500000000   0.999772207
   0.500000000   0.500000000   0.500227793
   0.000000000   0.248822002   0.750000000
   0.000000000   0.751177998   0.750000000
   0.500000000   0.250359242   0.250000000
   0.500000000   0.250227793   0.750000000
   0.500000000   0.749640758   0.250000000
   0.500000000   0.749772207   0.750000000
   0.246878630   0.000000000   0.250000000
   0.249147398   0.000000000   0.750000000
   0.249147398   0.500000000   0.250000000
   0.249663937   0.500000000   0.750000000
   0.753121370   0.000000000   0.250000000
   0.750852602   0.000000000   0.750000000
   0.750852602   0.500000000   0.250000000
   0.750336063   0.500000000   0.750000000
   0.248702526   0.249609612   0.000390388
   0.248702526   0.249609612   0.499609612
   0.248702526   0.750390388   0.000390388
   0.248702526   0.750390388   0.499609612
   0.751297474   0.249609612   0.000390388
   0.751297474   0.249609612   0.499609612
   0.751297474   0.750390388   0.000390388
   0.751297474   0.750390388   0.499609612
   0.250263380   0.249591469   0.250000000
   0.249446600   0.249745512   0.750000000
   0.250263380   0.750408531   0.250000000
   0.249446600   0.750254488   0.750000000
   0.749736620   0.249591469   0.250000000
   0.750553400   0.249745512   0.750000000
   0.749736620   0.750408531   0.250000000
   0.750553400   0.750254488   0.750000000
   0.250263380   0.000000000   0.000408531
   0.250263380   0.000000000   0.499591469
   0.249446600   0.500000000   0.000254488
   0.249446600   0.500000000   0.499745512
   0.749736620   0.000000000   0.000408531
   0.749736620   0.000000000   0.499591469
   0.750553400   0.500000000   0.000254488
   0.750553400   0.500000000   0.499745512
   0.000000000   0.249976716   0.000023284
   0.000000000   0.249976716   0.499976716
   0.000000000   0.750023284   0.000023284
   0.000000000   0.750023284   0.499976716
   0.500000000   0.249296128   0.000703872
   0.500000000   0.249296128   0.499296128
   0.500000000   0.750703872   0.000703872
   0.500000000   0.750703872   0.499296128
   0.000000000   0.000000000   0.250000000
   0.000000000   0.000000000   0.750000000
   0.000000000   0.500000000   0.250000000
   0.000000000   0.500000000   0.750000000
   0.500000000   0.000000000   0.250000000
   0.500000000   0.000000000   0.750000000
   0.500000000   0.500000000   0.250000000
   0.500000000   0.500000000   0.750000000
Mg28Ni4O32
   1.00000000
   8.443660559  -0.000000000   0.000000000
  -0.000000000   8.443475709   0.000000000
   0.000000000   0.000000000   8.443475709
  Ni  Mg  O
  4  28  32
Direct configuration=     3
   0.000000000   0.000000000   0.001434645
   0.000000000   0.000000000   0.498565355
   0.000000000   0.248565355   0.250000000
   0.000000000   0.751434645   0.250000000
   0.000000000   0.500000000   0.001302662
   0.000000000   0.500000000   0.498697338
   0.500000000   0.000000000   0.999716915
   0.500000000   0.000000000   0.500283085
   0.500000000   0.500000000   0.999794857
   0.500000000   0.500000000   0.500205143
   0.000000000   0.248697338   0.750000000
   0.000000000   0.751302662   0.750000000
   0.500000000   0.250283085   0.250000000
   0.500000000   0.250205143   0.750000000
   0.500000000   0.749716915   0.250000000
   0.500000000   0.749794857   0.750000000
   0.246593894   0.000000000   0.250000000
   0.249052624   0.000000000   0.750000000
   0.249052624   0.500000000   0.250000000
   0.249508524   0.500000000   0.750000000
   0.753406106   0.000000000   0.250000000
   0.750947376   0.000000000   0.750000000
   0.750947376   0.500000000   0.250000000
   0.750491476   0.500000000   0.750000000
   0.248552916   0.249536715   0.000463285
   0.248552916   0.249536715   0.499536715
   0.248552916   0.750463285   0.000463285
   0.248552916   0.750463285   0.499536715
   0.751447084   0.249536715   0.000463285
   0.751447084   0.249536715   0.499536715
   0.751447084   0.750463285   0.000463285
   0.751447084   0.750463285   0.499536715
   0.250176938   0.249541460   0.250000000
   0.249357331   0.249697617   0.750000000
   0.250176938   0.750458540   0.250000000
   0.249357331   0.750302383   0.750000000
   0.749823062   0.249541460   0.250000000
   0.750642669   0.249697617   0.750000000
   0.749823062   0.750458540   0.250000000
   0.750642669   0.750302383   0.750000000
   0.250176938   0.000000000   0.000458540
   0.250176938   0.000000000   0.499541460
   0.249357331   0.500000000   0.000302383
   0.249357331   0.500000000   0.499697617
   0.749823062   0.000000000   0.000458540
   0.749823062   0.000000000   0.499541460
   0.750642669   0.500000000   0.000302383
   0.750642669   0.500000000   0.499697617
   0.000000000   0.249925044   0.000074956
   0.000000000   0.249925044   0.499925044
   0.000000000   0.750074956   0.000074956
   0.000000000   0.750074956   0.499925044
   0.500000000   0.249264248   0.000735752
   0.500000000   0.249264248   0.499264248
   0.500000000   0.750735752   0.000735752
   0.500000000   0.750735752   0.499264248
   0.000000000   0.000000000   0.250000000
   0.000000000   0.000000000   0.750000000
   0.000000000   0.500000000   0.250000000
   0.000000000   0.500000000   0.750000000
   0.500000000   0.000000000   0.250000000
   0.500000000   0.000000000   0.750000000
   0.500000000   0.500000000   0.250000000
   0.500000000   0.500000000   0.750000000
Mg28Ni4O32
   1.00000000
   8.449288965  -0.000000000   0.000000000
  -0.000000000   8.448832550   0.000000000
   0.000000000   0.000000000   8.448832550
  Ni  Mg  O
  4  28  32
Direct configuration=     4
   0.000000000   0.000000000   0.002026879
   0.000000000   0.000000000   0.497973121
   0.000000000   0.247973121   0.250000000
   0.000000000   0.752026879   0.250000000
   0.000000000   0.500000000   0.001916936
   0.000000000   0.500000000   0.498083064
   0.500000000   0.000000000   0.000521406
   0.500000000   0.000000000   0.499478594
   0.500000000   0.500000000   0.000075254
   0.500000000   0.500000000   0.499924746
   0.000000000   0.248083064   0.750000000
   0.000000000   0.751916936   0.750000000
   0.500000000   0.249478594   0.250000000
   0.500000000   0.249924746   0.750000000
   0.500000000   0.750521406   0.250000000
   0.500000000   0.750075254   0.750000000
   0.245384820   1.000000000   0.250000000
   0.248582510   0.000000000   0.750000000
   0.248582510   0.500000000   0.250000000
   0.248288929   0.500000000   0.750000000
   0.754615180   1.000000000   0.250000000
   0.751417490   0.000000000   0.750000000
   0.751417490   0.500000000   0.250000000
   0.751711071   0.500000000   0.750000000
   0.247779904   0.249069823   0.000930177
   0.247779904   0.249069823   0.499069823
   0.247779904   0.750930177   0.000930177
   0.247779904   0.750930177   0.499069823
   0.752220096   0.249069823   0.000930177
   0.752220096   0.249069823   0.499069823
   0.752220096   0.750930177   0.000930177
   0.752220096   0.750930177   0.499069823
   0.249305902   0.249250588   0.250000000
   0.248781891   0.249372938   0.750000000
   0.249305902   0.750749412   0.250000000
   0.248781891   0.750627062   0.750000000
   0.750694098   0.249250588   0.250000000
   0.751218109   0.249372938   0.750000000
   0.750694098   0.750749412   0.250000000
   0.751218109   0.750627062   0.750000000
   0.249305902   0.000000000   0.000749412
   0.249305902   0.000000000   0.499250588
   0.248781891   0.500000000   0.000627062
   0.248781891   0.500000000   0.499372938
   0.750694098   0.000000000   0.000749412
   0.750694098   0.000000000   0.499250588
   0.751218109   0.500000000   0.000627062
   0.751218109   0.500000000   0.499372938
   1.000000000   0.249475099   0.000524901
   0.000000000   0.249475099   0.499475099
   1.000000000   0.750524901   0.000524901
   1.000000000   0.750524901   0.499475099
   0.500000000   0.249252592   0.000747408
   0.500000000   0.249252592   0.499252592
   0.500000000   0.750747408   0.000747408
   0.500000000   0.750747408   0.499252592
   1.000000000   1.000000000   0.250000000
   0.000000000   0.000000000   0.750000000
   0.000000000   0.500000000   0.250000000
   0.000000000   0.500000000   0.750000000
   0.500000000   1.000000000   0.250000000
   0.500000000   0.000000000   0.750000000
   0.500000000   0.500000000   0.250000000
   0.500000000   0.500000000   0.750000000
Mg28Ni4O32
   1.00000000
   8.452147088  -0.000000000   0.000000000
  -0.000000000   8.451551815   0.000000000
   0.000000000   0.000000000   8.451551815
  Ni  Mg  O
  4  28  32
Direct configuration=     5
   1.000000000   0.000000000   0.002031608
   0.000000000   0.000000000   0.497968392
   0.000000000   0.247968392   0.250000000
   0.000000000   0.752031608   0.250000000
   0.000000000   0.500000000   0.002004863
   0.000000000   0.500000000   0.497995137
   0.500000000   1.000000000   0.000947534
   0.500000000   1.000000000   0.499052466
   0.500000000   0.500000000   0.000230658
   0.500000000   0.500000000   0.499769342
   0.000000000   0.247995137   0.750000000
   0.000000000   0.752004863   0.750000000
   0.500000000   0.249052466   0.250000000
   0.500000000   0.249769342   0.750000000
   0.500000000   0.750947534   0.250000000
   0.500000000   0.750230658   0.750000000
   0.245377296   1.000000000   0.250000000
   0.248528332   0.000000000   0.750000000
   0.248528332   0.500000000   0.250000000
   0.247780252   0.500000000   0.750000000
   0.754622704   1.000000000   0.250000000
   0.751471668   0.000000000   0.750000000
   0.751471668   0.500000000   0.250000000
   0.752219748   0.500000000   0.750000000
   0.247654140   0.248936960   0.001063040
   0.247654140   0.248936960   0.498936960
   0.247654140   0.751063040   0.001063040
   0.247654140   0.751063040   0.498936960
   0.752345860   0.248936960   0.001063040
   0.752345860   0.248936960   0.498936960
   0.752345860   0.751063040   0.001063040
   0.752345860   0.751063040   0.498936960
   0.248844496   0.249157546   0.250000000
   0.248580697   0.249252384   0.750000000
   0.248844496   0.750842454   0.250000000
   0.248580697   0.750747616   0.750000000
   0.751155504   0.249157546   0.250000000
   0.751419303   0.249252384   0.750000000
   0.751155504   0.750842454   0.250000000
   0.751419303   0.750747616   0.750000000
   0.248844496   0.000000000   0.000842454
   0.248844496   0.000000000   0.499157546
   0.248580697   0.500000000   0.000747616
   0.248580697   0.500000000   0.499252384
   0.751155504   0.000000000   0.000842454
   0.751155504   0.000000000   0.499157546
   0.751419303   0.500000000   0.000747616
   0.751419303   0.500000000   0.499252384
   1.000000000   0.249259396   0.000740604
   1.000000000   0.249259396   0.499259396
   1.000000000   0.750740604   0.000740604
   1.000000000   0.750740604   0.499259396
   0.500000000   0.249339451   0.000660549
   0.500000000   0.249339451   0.499339451
   0.500000000   0.750660549   0.000660549
   0.500000000   0.750660549   0.499339451
   1.000000000   1.000000000   0.250000000
   1.000000000   0.000000000   0.750000000
   0.000000000   0.500000000   0.250000000
   0.000000000   0.500000000   0.750000000
   0.500000000   1.000000000   0.250000000
   0.500000000   0.000000000   0.750000000
   0.500000000   0.500000000   0.250000000
   0.500000000   0.500000000   0.750000000
Mg28Ni4O32
   1.00000000
   8.456169260  -0.000000000   0.000000000
  -0.000000000   8.455374678   0.000000000
   0.000000000   0.000000000   8.455374678
  Ni  Mg  O
  4  28  32
Direct configuration=     6
   1.000000000   0.000000000   0.001804299
   1.000000000   0.000000000   0.498195701
   0.000000000   0.248195701   0.250000000
   1.000000000   0.751804299   0.250000000
   0.000000000   0.500000000   0.001965359
   0.000000000   0.500000000   0.498034641
   0.500000000   1.000000000   0.001374661
   0.500000000   1.000000000   0.498625339
   0.500000000   0.500000000   0.000379219
   0.500000000   0.500000000   0.499620781
   0.000000000   0.248034641   0.750000000
   0.000000000   0.751965359   0.750000000
   0.500000000   0.248625339   0.250000000
   0.500000000   0.249620781   0.750000000
   0.500000000   0.751374661   0.250000000
   0.500000000   0.750379219   0.750000000
   0.245752030   1.000000000   0.250000000
   0.248607015   0.000000000   0.750000000
   0.248607015   0.500000000   0.250000000
   0.247331759   0.500000000   0.750000000
   0.754247970   1.000000000   0.250000000
   0.751392985   0.000000000   0.750000000
   0.751392985   0.500000000   0.250000000
   0.752668241   0.500000000   0.750000000
   0.247699091   0.248885576   0.001114424
   0.247699091   0.248885576   0.498885576
   0.247699091   0.751114424   0.001114424
   0.247699091   0.751114424   0.498885576
   0.752300909   0.248885576   0.001114424
   0.752300909   0.248885576   0.498885576
   0.752300909   0.751114424   0.001114424
   0.752300909   0.751114424   0.498885576
   0.248359459   0.249066831   0.250000000
   0.248400871   0.249143481   0.750000000
   0.248359459   0.750933169   0.250000000
   0.248400871   0.750856519   0.750000000
   0.751640541   0.249066831   0.250000000
   0.751599129   0.249143481   0.750000000
   0.751640541   0.750933169   0.250000000
   0.751599129   0.750856519   0.750000000
   0.248359459   1.000000000   0.000933169
   0.248359459   0.000000000   0.499066831
   0.248400871   0.500000000   0.000856519
   0.248400871   0.500000000   0.499143481
   0.751640541   0.000000000   0.000933169
   0.751640541   0.000000000   0.499066831
   0.751599129   0.500000000   0.000856519
   0.751599129   0.500000000   0.499143481
   1.000000000   0.249040202   0.000959798
   1.000000000   0.249040202   0.499040202
   1.000000000   0.750959798   0.000959798
   1.000000000   0.750959798   0.499040202
   0.500000000   0.249448199   0.000551801
   0.500000000   0.249448199   0.499448199
   0.500000000   0.750551801   0.000551801
   0.500000000   0.750551801   0.499448199
   1.000000000   1.000000000   0.250000000
   1.000000000   0.000000000   0.750000000
   0.000000000   0.500000000   0.250000000
   0.000000000   0.500000000   0.750000000
   0.500000000   1.000000000   0.250000000
   0.500000000   0.000000000   0.750000000
   0.500000000   0.500000000   0.250000000
   0.500000000   0.500000000   0.750000000
Mg28Ni4O32
   1.00000000
   8.461800669  -0.000000000   0.000000000
  -0.000000000   8.460720661   0.000000000
   0.000000000   0.000000000   8.460720661
  Ni  Mg  O
  4  28  32
Direct configuration=     7
   1.000000000   0.000000000   0.001409974
   1.000000000   0.000000000   0.498590026
   1.000000000   0.248590026   0.250000000
   1.000000000   0.751409974   0.250000000
   1.000000000   0.500000000   0.001861078
   1.000000000   0.500000000   0.498138922
   0.500000000   1.000000000   0.001650821
   0.500000000   1.000000000   0.498349179
   0.500000000   0.500000000   0.000455032
   0.500000000   0.500000000   0.499544968
   1.000000000   0.248138922   0.750000000
   1.000000000   0.751861078   0.750000000
   0.500000000   0.248349179   0.250000000
   0.500000000   0.249544968   0.750000000
   0.500000000   0.751650821   0.250000000
   0.500000000   0.750455032   0.750000000
   0.246295653   1.000000000   0.250000000
   0.248787451   0.000000000   0.750000000
   0.248787451   0.500000000   0.250000000
   0.247055873   0.500000000   0.750000000
   0.753704347   1.000000000   0.250000000
   0.751212549   0.000000000   0.750000000
   0.751212549   0.500000000   0.250000000
   0.752944127   0.500000000   0.750000000
   0.247862624   0.248934018   0.001065982
   0.247862624   0.248934018   0.498934018
   0.247862624   0.751065982   0.001065982
   0.247862624   0.751065982   0.498934018
   0.752137376   0.248934018   0.001065982
   0.752137376   0.248934018   0.498934018
   0.752137376   0.751065982   0.001065982
   0.752137376   0.751065982   0.498934018
   0.248000447   0.248967090   0.250000000
   0.248248265   0.249058099   0.750000000
   0.248000447   0.751032910   0.250000000
   0.248248265   0.750941901   0.750000000
   0.751999553   0.248967090   0.250000000
   0.751751735   0.249058099   0.750000000
   0.751999553   0.751032910   0.250000000
   0.751751735   0.750941901   0.750000000
   0.248000447   1.000000000   0.001032910
   0.248000447   0.000000000   0.498967090
   0.248248265   0.500000000   0.000941901
   0.248248265   0.500000000   0.499058099
   0.751999553   0.000000000   0.001032910
   0.751999553   0.000000000   0.498967090
   0.751751735   0.500000000   0.000941901
   0.751751735   0.500000000   0.499058099
   1.000000000   0.248875753   0.001124247
   1.000000000   0.248875753   0.498875753
   1.000000000   0.751124247   0.001124247
   1.000000000   0.751124247   0.498875753
   0.500000000   0.249488983   0.000511017
   0.500000000   0.249488983   0.499488983
   0.500000000   0.750511017   0.000511017
   0.500000000   0.750511017   0.499488983
   1.000000000   1.000000000   0.250000000
   1.000000000   0.000000000   0.750000000
   1.000000000   0.500000000   0.250000000
   0.000000000   0.500000000   0.750000000
   0.500000000   1.000000000   0.250000000
   0.500000000   0.000000000   0.750000000
   0.500000000   0.500000000   0.250000000
   0.500000000   0.500000000   0.750000000
Mg28Ni4O32
   1.00000000
   8.472749098  -0.000000000   0.000000000
  -0.000000000   8.471103824   0.000000000
   0.000000000   0.000000000   8.471103824
  Ni  Mg  O
  4  28  32
Direct configuration=     8
   1.000000000   0.000000000   0.000738626
   1.000000000   0.000000000   0.499261374
   1.000000000   0.249261374   0.250000000
   1.000000000   0.750738626   0.250000000
   1.000000000   0.500000000   0.001704919
   1.000000000   0.500000000   0.498295081
   0.500000000   1.000000000   0.001742237
   0.500000000   1.000000000   0.498257763
   0.500000000   0.500000000   0.000426493
   0.500000000   0.500000000   0.499573507
   1.000000000   0.248295081   0.750000000
   1.000000000   0.751704919   0.750000000
   0.500000000   0.248257763   0.250000000
   0.500000000   0.249573507   0.750000000
   0.500000000   0.751742237   0.250000000
   0.500000000   0.750426493   0.750000000
   0.247040275   1.000000000   0.250000000
   0.249125669   0.000000000   0.750000000
   0.249125669   0.500000000   0.250000000
   0.246943460   0.500000000   0.750000000
   0.752959725   1.000000000   0.250000000
   0.750874331   0.000000000   0.750000000
   0.750874331   0.500000000   0.250000000
   0.753056540   0.500000000   0.750000000
   0.248168328   0.249122466   0.000877534
   0.248168328   0.249122466   0.499122466
   0.248168328   0.750877534   0.000877534
   0.248168328   0.750877534   0.499122466
   0.751831672   0.249122466   0.000877534
   0.751831672   0.249122466   0.499122466
   0.751831672   0.750877534   0.000877534
   0.751831672   0.750877534   0.499122466
   0.247772273   0.248815950   0.250000000
   0.248073630   0.248977823   0.750000000
   0.247772273   0.751184050   0.250000000
   0.248073630   0.751022177   0.750000000
   0.752227727   0.248815950   0.250000000
   0.751926370   0.248977823   0.750000000
   0.752227727   0.751184050   0.250000000
   0.751926370   0.751022177   0.750000000
   0.247772273   0.000000000   0.001184050
   0.247772273   0.000000000   0.498815950
   0.248073630   0.500000000   0.001022177
   0.248073630   0.500000000   0.498977823
   0.752227727   0.000000000   0.001184050
   0.752227727   0.000000000   0.498815950
   0.751926370   0.500000000   0.001022177
   0.751926370   0.500000000   0.498977823
   1.000000000   0.248760570   0.001239430
   1.000000000   0.248760570   0.498760570
   1.000000000   0.751239430   0.001239430
   1.000000000   0.751239430   0.498760570
   0.500000000   0.249394766   0.000605234
   0.500000000   0.249394766   0.499394766
   0.500000000   0.750605234   0.000605234
   0.500000000   0.750605234   0.499394766
   1.000000000   1.000000000   0.250000000
   1.000000000   0.000000000   0.750000000
   1.000000000   0.500000000   0.250000000
   0.000000000   0.500000000   0.750000000
   0.500000000   1.000000000   0.250000000
   0.500000000   0.000000000   0.750000000
   0.500000000   0.500000000   0.250000000
   0.500000000   0.500000000   0.750000000
Mg28Ni4O32
   1.00000000
   8.486354367  -0.000000000   0.000000000
  -0.000000000   8.483992028   0.000000000
   0.000000000   0.000000000   8.483992028
  Ni  Mg  O
  4  28  32
Direct configuration=     9
   1.000000000   0.000000000   0.000146570
   1.000000000   0.000000000   0.499853430
   1.000000000   0.249853430   0.250000000
   1.000000000   0.750146570   0.250000000
   1.000000000   0.500000000   0.001602738
   1.000000000   0.500000000   0.498397262
   0.500000000   1.000000000   0.001405450
   0.500000000   1.000000000   0.498594550
   0.500000000   0.500000000   0.000226673
   0.500000000   0.500000000   0.499773327
   1.000000000   0.248397262   0.750000000
   1.000000000   0.751602738   0.750000000
   0.500000000   0.248594550   0.250000000
   0.500000000   0.249773327   0.750000000
   0.500000000   0.751405450   0.250000000
   0.500000000   0.750226673   0.750000000
   0.247474637   1.000000000   0.250000000
   0.249469139   0.000000000   0.750000000
   0.249469139   0.500000000   0.250000000
   0.247215155   0.500000000   0.750000000
   0.752525363   1.000000000   0.250000000
   0.750530861   0.000000000   0.750000000
   0.750530861   0.500000000   0.250000000
   0.752784845   0.500000000   0.750000000
   0.248458003   0.249402326   0.000597674
   0.248458003   0.249402326   0.499402326
   0.248458003   0.750597674   0.000597674
   0.248458003   0.750597674   0.499402326
   0.751541997   0.249402326   0.000597674
   0.751541997   0.249402326   0.499402326
   0.751541997   0.750597674   0.000597674
   0.751541997   0.750597674   0.499402326
   0.248007164   0.248715762   0.250000000
   0.248017703   0.248983704   0.750000000
   0.248007164   0.751284238   0.250000000
   0.248017703   0.751016296   0.750000000
   0.751992836   0.248715762   0.250000000
   0.751982297   0.248983704   0.750000000
   0.751992836   0.751284238   0.250000000
   0.751982297   0.751016296   0.750000000
   0.248007164   0.000000000   0.001284238
   0.248007164   0.000000000   0.498715762
   0.248017703   0.500000000   0.001016296
   0.248017703   0.500000000   0.498983704
   0.751992836   0.000000000   0.001284238
   0.751992836   0.000000000   0.498715762
   0.751982297   0.500000000   0.001016296
   0.751982297   0.500000000   0.498983704
   1.000000000   0.248849402   0.001150598
   1.000000000   0.248849402   0.498849402
   1.000000000   0.751150598   0.001150598
   1.000000000   0.751150598   0.498849402
   0.500000000   0.249126304   0.000873696
   0.500000000   0.249126304   0.499126304
   0.500000000   0.750873696   0.000873696
   0.500000000   0.750873696   0.499126304
   1.000000000   1.000000000   0.250000000
   1.000000000   0.000000000   0.750000000
   0.000000000   0.500000000   0.250000000
   0.000000000   0.500000000   0.750000000
   0.500000000   1.000000000   0.250000000
   0.500000000   1.000000000   0.750000000
   0.500000000   0.500000000   0.250000000
   0.500000000   0.500000000   0.750000000
Mg28Ni4O32
   1.00000000
   8.496892915  -0.000000000   0.000000000
  -0.000000000   8.493955978   0.000000000
   0.000000000   0.000000000   8.493955978
  Ni  Mg  O
  4  28  32
Direct configuration=     10
   1.000000000   0.000000000   0.000020921
   1.000000000   0.000000000   0.499979079
   1.000000000   0.249979079   0.250000000
   1.000000000   0.750020921   0.250000000
   1.000000000   0.500000000   0.001601781
   1.000000000   0.500000000   0.498398219
   0.500000000   0.000000000   0.000780554
   0.500000000   1.000000000   0.499219446
   0.500000000   0.500000000   0.999957946
   0.500000000   0.500000000   0.500042054
   1.000000000   0.248398219   0.750000000
   1.000000000   0.751601781   0.750000000
   0.500000000   0.249219446   0.250000000
   0.500000000   0.250042054   0.750000000
   0.500000000   0.750780554   0.250000000
   0.500000000   0.749957946   0.750000000
   0.247320966   0.000000000   0.250000000
   0.249627776   0.000000000   0.750000000
   0.249627776   0.500000000   0.250000000
   0.247774806   0.500000000   0.750000000
   0.752679034   0.000000000   0.250000000
   0.750372224   0.000000000   0.750000000
   0.750372224   0.500000000   0.250000000
   0.752225194   0.500000000   0.750000000
   0.248570100   0.249613746   0.000386254
   0.248570100   0.249613746   0.499613746
   0.248570100   0.750386254   0.000386254
   0.248570100   0.750386254   0.499613746
   0.751429900   0.249613746   0.000386254
   0.751429900   0.249613746   0.499613746
   0.751429900   0.750386254   0.000386254
   0.751429900   0.750386254   0.499613746
   0.248667537   0.248786984   0.250000000
   0.248185200   0.249113348   0.750000000
   0.248667537   0.751213016   0.250000000
   0.248185200   0.750886652   0.750000000
   0.751332463   0.248786984   0.250000000
   0.751814800   0.249113348   0.750000000
   0.751332463   0.751213016   0.250000000
   0.751814800   0.750886652   0.750000000
   0.248667537   0.000000000   0.001213016
   0.248667537   0.000000000   0.498786984
   0.248185200   0.500000000   0.000886652
   0.248185200   0.500000000   0.499113348
   0.751332463   0.000000000   0.001213016
   0.751332463   0.000000000   0.498786984
   0.751814800   0.500000000   0.000886652
   0.751814800   0.500000000   0.499113348
   1.000000000   0.249145693   0.000854307
   1.000000000   0.249145693   0.499145693
   1.000000000   0.750854307   0.000854307
   1.000000000   0.750854307   0.499145693
   0.500000000   0.248854972   0.001145028
   0.500000000   0.248854972   0.498854972
   0.500000000   0.751145028   0.001145028
   0.500000000   0.751145028   0.498854972
   0.000000000   0.000000000   0.250000000
   1.000000000   0.000000000   0.750000000
   0.000000000   0.500000000   0.250000000
   0.000000000   0.500000000   0.750000000
   0.500000000   1.000000000   0.250000000
   0.500000000   1.000000000   0.750000000
   0.500000000   0.500000000   0.250000000
   0.500000000   0.500000000   0.750000000
Mg28Ni4O32
   1.00000000
   8.500849872  -0.000000000   0.000000000
  -0.000000000   8.497674351   0.000000000
   0.000000000   0.000000000   8.497674351
  Ni  Mg  O
  4  28  32
Direct configuration=     11
   1.000000000   0.000000000   0.000323698
   1.000000000   0.000000000   0.499676302
   1.000000000   0.249676302   0.250000000
   1.000000000   0.750323698   0.250000000