H107LiMg53
   1.00000000
   13.503017143   0.000003097   0.000000000
   0.000003097   13.503017199  -0.000000000
   0.000000000  -0.000000000   9.029981229
  Li  Mg  H
  1  53  107
Direct configuration=     1
   0.000000246   0.000001318   0.000000000
   0.999999914   0.999998745   0.332898289
   0.999999913   0.999998745   0.667101711
   0.999818851   0.333122215   1.000000000
   0.999990895   0.333313965   0.333361774
   0.999990895   0.333313965   0.666638226
   0.999986705   0.666719499   1.000000000
   0.999996624   0.666672958   0.333333398
   0.999996623   0.666672958   0.666666602
   0.333304942   0.999999343   0.000000000
   0.333321510   0.999999333   0.333325526
   0.333321510   0.999999333   0.666674474
   0.333352675   0.333316760   0.000000000
   0.333323611   0.333324490   0.333336222
   0.333323611   0.333324490   0.666663778
   0.333352384   0.666699044   0.000000000
   0.333322525   0.666658497   0.333331644
   0.333322524   0.666658497   0.666668357
   0.666695906   0.999999441   1.000000000
   0.666678710   0.000001544   0.333325803
   0.666678710   0.000001545   0.666674197
   0.666673733   0.333327633   0.000000000
   0.666666752   0.333331868   0.333337206
   0.666666752   0.333331868   0.666662794
   0.666669778   0.666671758   1.000000000
   0.666671674   0.666671051   0.333328285
   0.666671674   0.666671051   0.666671715
   0.166539945   0.166531484   0.166487236
   0.166661329   0.166660600   0.500000000
   0.166539945   0.166531485   0.833512765
   0.166822527   0.500160790   0.167089711
   0.166671063   0.500007028   0.500000000
   0.166822526   0.500160790   0.832910290
   0.166525823   0.833474747   0.166620551
   0.166655442   0.833344299   0.500000000
   0.166525823   0.833474747   0.833379449
   0.499997678   0.166664336   0.166664773
   0.500000442   0.166664062   0.500000000
   0.499997677   0.166664335   0.833335227
   0.500000319   0.500000178   0.166667355
   0.499999513   0.500000202   0.500000000
   0.500000319   0.500000178   0.833332644
   0.500000896   0.833339190   0.166663605
   0.499999942   0.833335966   0.500000000
   0.500000896   0.833339189   0.833336395
   0.833475284   0.166526534   0.166611124
   0.833346251   0.166656817   0.500000000
   0.833475284   0.166526534   0.833388875
   0.833335322   0.500005853   0.166672278
   0.833340018   0.500004839   0.500000000
   0.833335322   0.500005853   0.833327722
   0.833468284   0.833463300   0.166479494
   0.833343402   0.833343727   0.500000000
   0.833468284   0.833463300   0.833520506
   0.101610284   0.101608683   1.000000000
   0.101464841   0.101465274   0.333405700
   0.101464841   0.101465274   0.666594300
   0.101434572   0.434767692   0.333321384
   0.101434572   0.434767693   0.666678617
   0.101460083   0.768070827   0.000000000
   0.101438690   0.768085224   0.333355027
   0.101438690   0.768085224   0.666644972
   0.434773962   0.101439840   0.000000000
   0.434772324   0.101438036   0.333332712
   0.434772324   0.101438035   0.666667288
   0.434769479   0.434775325   0.000000000
   0.434773608   0.434773042   0.333331829
   0.434773608   0.434773042   0.666668171
   0.434772353   0.768105270   1.000000000
   0.434771716   0.768105037   0.333333350
   0.434771716   0.768105037   0.666666650
   0.768072126   0.101455843   0.000000000
   0.768084000   0.101438140   0.333355681
   0.768084000   0.101438140   0.666644319
   0.768106600   0.434773433   0.000000000
   0.768105147   0.434771306   0.333332761
   0.768105147   0.434771306   0.666667239
   0.768038786   0.768040263   1.000000000
   0.768108500   0.768109613   0.333326227
   0.768108500   0.768109613   0.666673773
   0.231946297   0.231986631   1.000000000
   0.231888657   0.231887769   0.333328050
   0.231888657   0.231887769   0.666671950
   0.231693317   0.565026311   0.000000000
   0.231903006   0.565236341   0.333325715
   0.231903006   0.565236341   0.666674285
   0.231926387   0.898543722   1.000000000
   0.231916203   0.898562342   0.333355557
   0.231916203   0.898562342   0.666644443
   0.565228998   0.231894927   0.000000000
   0.565228321   0.231894319   0.333332720
   0.565228321   0.231894319   0.666667280
   0.565228501   0.565227444   0.000000000
   0.565227994   0.565227798   0.333332296
   0.565227994   0.565227798   0.666667703
   0.565226512   0.898559098   1.000000000
   0.565228149   0.898561322   0.333332254
   0.565228149   0.898561322   0.666667746
   0.898546906   0.231927643   0.000000000
   0.898562127   0.231916284   0.333356558
   0.898562127   0.231916285   0.666643442
   0.898585215   0.565212525   1.000000000
   0.898558307   0.565226134   0.333334797
   0.898558306   0.565226134   0.666665203
   0.898391346   0.898391912   0.000000000
   0.898534387   0.898534970   0.333405729
   0.898534387   0.898534970   0.666594271
   0.065239325   0.268194067   0.166619221
   0.065225669   0.268096666   0.500000000
   0.065239325   0.268194067   0.833380779
   0.065241288   0.601375978   0.166590516
   0.065220964   0.601447118   0.500000000
   0.065241288   0.601375978   0.833409484
   0.065358617   0.934640982   0.166966754
   0.065214689   0.934785314   0.500000000
   0.065358617   0.934640982   0.833033246
   0.398553701   0.268107975   0.166659587
   0.398563695   0.268105107   0.500000000
   0.398553701   0.268107975   0.833340413
   0.398556282   0.601436431   0.166660822
   0.398567720   0.601440795   0.500000000
   0.398556282   0.601436431   0.833339178
   0.398560047   0.934771907   0.166667859
   0.398560399   0.934771829   0.500000000
   0.398560047   0.934771907   0.833332141
   0.731896121   0.268101481   0.166667914
   0.731893570   0.268105007   0.500000000
   0.731896121   0.268101481   0.833332086
   0.731895384   0.601441344   0.166665540
   0.731894227   0.601438035   0.500000000
   0.731895384   0.601441344   0.833334460
   0.731863503   0.934782181   0.166692140
   0.731901596   0.934773017   0.500000000
   0.731863503   0.934782181   0.833307860
   0.268137208   0.065216426   0.166691994
   0.268098208   0.065226504   0.500000000
   0.268137208   0.065216426   0.833308006
   0.268039924   0.398571606   0.166588109
   0.268113175   0.398553986   0.500000000
   0.268039924   0.398571606   0.833411891
   0.268098185   0.731894480   0.166660095
   0.268107321   0.731901190   0.500000000
   0.268098185   0.731894480   0.833339905
   0.601439542   0.065228932   0.166668093
   0.601439256   0.065228755   0.500000000
   0.601439542   0.065228932   0.833331907
   0.601439226   0.398560539   0.166667017
   0.601439061   0.398560913   0.500000000
   0.601439226   0.398560539   0.833332983
   0.601441516   0.731896286   0.166665711
   0.601438803   0.731894366   0.500000000
   0.601441516   0.731896286   0.833334289
   0.934641504   0.065355818   0.166967529
   0.934784731   0.065213894   0.500000000
   0.934641504   0.065355818   0.833032471
   0.934828756   0.398582739   0.166598342
   0.934769585   0.398559383   0.500000000
   0.934828756   0.398582739   0.833401658
   0.934786898   0.731857994   0.166685763
   0.934772823   0.731903529   0.500000000
   0.934786898   0.731857994   0.833314237
H107LiMg53
   1.00000000
   13.503223026   0.000039487  -0.000000000
   0.000039487   13.503223742   0.000000000
  -0.000000000   0.000000000   9.029762815
  Li  Mg  H
  1  53  107
Direct configuration=     2
   0.000003177   0.000015660   0.999999990
   0.999999383   0.999983783   0.328308577
   0.999999381   0.999983782   0.671691444
   0.997777512   0.330767290   0.999999978
   0.999890588   0.333109996   0.333671589
   0.999890584   0.333109995   0.666328431
   0.999834649   0.667281800   0.999999980
   0.999963659   0.666726466   0.333326691
   0.999963660   0.666726465   0.666673302
   0.333012907   0.999996214   0.999999982
   0.333200350   0.999990904   0.333261181
   0.333200349   0.999990908   0.666738815
   0.333580791   0.333147435   0.999999985
   0.333202253   0.333223263   0.333345959
   0.333202260   0.333223261   0.666654073
   0.333497742   0.667007538   0.999999979
   0.333217583   0.666588834   0.333299826
   0.333217583   0.666588833   0.666700173
   0.666997331   0.999988355   0.999999986
   0.666802545   0.000019240   0.333263844
   0.666802546   0.000019236   0.666736194
   0.666758867   0.333258308   0.999999967
   0.666669755   0.333313067   0.333373821
   0.666669755   0.333313073   0.666626211
   0.666689102   0.666713591   0.999999975
   0.666733651   0.666726848   0.333279747
   0.666733655   0.666726849   0.666720272
   0.165158902   0.165071941   0.164600928
   0.166622430   0.166609608   0.499999980
   0.165158900   0.165071942   0.835399087
   0.168580571   0.501977999   0.171750916
   0.166698847   0.500067005   0.499999987
   0.168580569   0.501977996   0.828249077
   0.165047055   0.834960798   0.166161993
   0.166511894   0.833489206   0.499999983
   0.165047051   0.834960799   0.833838035
   0.499973393   0.166633883   0.166639374
   0.500005389   0.166630001   0.499999991
   0.499973397   0.166633885   0.833360641
   0.500006195   0.500000759   0.166671045
   0.499999055   0.500001745   0.499999978
   0.500006195   0.500000759   0.833328957
   0.500012006   0.833410048   0.166629498
   0.500000220   0.833369041   0.499999979
   0.500012007   0.833410050   0.833370507
   0.834957417   0.165050197   0.166062744
   0.833505487   0.166526737   0.499999986
   0.834957416   0.165050202   0.833937263
   0.833372451   0.500065836   0.166721370
   0.833414616   0.500060034   0.499999987
   0.833372452   0.500065837   0.833278635
   0.834936103   0.834877177   0.164515192
   0.833434011   0.833440260   0.499999989
   0.834936103   0.834877175   0.835484803
   0.103493360   0.103476380   0.999999988
   0.101801025   0.101809670   0.334181710
   0.101801021   0.101809666   0.665818300
   0.101453605   0.434777246   0.333237241
   0.101453607   0.434777248   0.666762784
   0.101764274   0.767756303   0.999999985
   0.101508635   0.767908755   0.333602728
   0.101508635   0.767908756   0.666397288
   0.434844500   0.101510651   0.999999988
   0.434829507   0.101492131   0.333329594
   0.434829509   0.101492131   0.666670405
   0.434796484   0.434868828   0.999999993
   0.434838957   0.434835097   0.333314991
   0.434838955   0.434835095   0.666685030
   0.434841165   0.768170441   0.999999987
   0.434822408   0.768157659   0.333336125
   0.434822408   0.768157655   0.666663900
   0.767777511   0.101716792   0.999999989
   0.767901115   0.101505860   0.333612419
   0.767901116   0.101505860   0.666387580
   0.768181301   0.434847030   0.999999994
   0.768165410   0.434820444   0.333329577
   0.768165408   0.434820442   0.666670427
   0.767362814   0.767379806   0.999999992
   0.768224330   0.768237288   0.333194948
   0.768224326   0.768237286   0.666805071
   0.232450779   0.232949017   0.999999992
   0.231742076   0.231731780   0.333217298
   0.231742078   0.231731782   0.666782707
   0.229404353   0.562734669   0.999999991
   0.231975216   0.565310725   0.333355006
   0.231975215   0.565310723   0.666645013
   0.232211734   0.898284383   0.999999985
   0.232102797   0.898501325   0.333611503
   0.232102799   0.898501329   0.666388502
   0.565181695   0.231839919   0.999999989
   0.565173961   0.231831262   0.333329866
   0.565173960   0.231831262   0.666670148
   0.565180298   0.565168029   0.999999987
   0.565174909   0.565172490   0.333322882
   0.565174909   0.565172492   0.666677137
   0.565160281   0.898476364   0.999999990
   0.565176784   0.898501107   0.333324903
   0.565176784   0.898501108   0.666675113
   0.898259563   0.232161156   0.999999986
   0.898500325   0.232105354   0.333618325
   0.898500326   0.232105355   0.666381693
   0.898796698   0.564986223   0.999999989
   0.898464979   0.565152282   0.333355579
   0.898464981   0.565152282   0.666644436
   0.896527815   0.896532455   0.999999990
   0.898189354   0.898195617   0.334182785
   0.898189358   0.898195615   0.665817224
   0.065333465   0.269239419   0.166075878
   0.065143143   0.268058898   0.499999990
   0.065333459   0.269239423   0.833924143
   0.065317187   0.600736332   0.165743281
   0.065090099   0.601602137   0.499999992
   0.065317189   0.600736331   0.834256736
   0.066671957   0.933322661   0.170259358
   0.064981842   0.935017875   0.499999986
   0.066671957   0.933322663   0.829740648
   0.398408323   0.268200801   0.166583640
   0.398532314   0.268160120   0.499999991
   0.398408320   0.268200807   0.833416364
   0.398428535   0.601465169   0.166578797
   0.398571178   0.601526806   0.499999992
   0.398428533   0.601465172   0.833421211
   0.398484955   0.934824950   0.166674144
   0.398487746   0.934827826   0.499999989
   0.398484957   0.934824948   0.833325879
   0.731899228   0.268073485   0.166678126
   0.731824407   0.268158262   0.499999981
   0.731899222   0.268073489   0.833321895
   0.731844129   0.601527325   0.166652264
   0.731830309   0.601489978   0.499999984
   0.731844127   0.601527326   0.833347756
   0.731466702   0.934943781   0.166966976
   0.731916724   0.934841984   0.499999985
   0.731466699   0.934943780   0.833033022
   0.268543086   0.065038088   0.166964818
   0.268080284   0.065152415   0.499999994
   0.268543088   0.065038088   0.833035204
   0.267367687   0.398613390   0.165720426
   0.268258033   0.398417933   0.499999985
   0.267367692   0.398613387   0.834279571
   0.268029160   0.731864064   0.166572771
   0.268187101   0.731910823   0.499999995
   0.268029164   0.731864062   0.833427256
   0.601509064   0.065185149   0.166677575
   0.601508426   0.065179333   0.499999989
   0.601509066   0.065185149   0.833322433
   0.601503757   0.398493052   0.166666599
   0.601504647   0.398494623   0.499999986
   0.601503757   0.398493049   0.833333419
   0.601528153   0.731855451   0.166654468
   0.601499926   0.731832156   0.499999985
   0.601528152   0.731855448   0.833345551
   0.933328746   0.066640539   0.170265821
   0.935011066   0.064972356   0.499999984
   0.933328748   0.066640538   0.829734201
   0.935523051   0.398776207   0.165823500
   0.934797230   0.398476184   0.499999991
   0.935523054   0.398776203   0.834176502
   0.935006513   0.731394517   0.166892554
   0.934837964   0.731941990   0.499999991
   0.935006512   0.731394518   0.833107475
H107LiMg53
   1.00000000
   13.503244728   0.000042203  -0.000000000
   0.000042203   13.503245461   0.000000000
  -0.000000000   0.000000000   9.029749292
  Li  Mg  H
  1  53  107
Direct configuration=     3
   0.000003462   0.000015943   0.999999990
   0.999999956   0.999982542   0.328412729
   0.999999954   0.999982541   0.671587287
   0.997713327   0.330710093   0.999999978
   0.999889875   0.333112838   0.333669031
   0.999889871   0.333112837   0.666330987
   0.999828094   0.667275514   0.999999980
   0.999967037   0.666715624   0.333316500
   0.999967038   0.666715624   0.666683492
   0.333023297   0.999999656   0.999999982
   0.333203524   0.999989738   0.333276353
   0.333203523   0.999989741   0.666723641
   0.333594453   0.333154851   0.999999984
   0.333182755   0.333214141   0.333322197
   0.333182761   0.333214139   0.666677831
   0.333445695   0.666981654   0.999999978
   0.333226327   0.666611711   0.333284667
   0.333226327   0.666611710   0.666715332
   0.666987412   0.999984191   0.999999985
   0.666799647   0.000020262   0.333278516
   0.666799648   0.000020258   0.666721516
   0.666771249   0.333246904   0.999999969
   0.666675669   0.333306443   0.333365072
   0.666675669   0.333306448   0.666634958
   0.666678457   0.666704000   0.999999975
   0.666744924   0.666738587   0.333281444
   0.666744928   0.666738589   0.666718570
   0.165158725   0.165083874   0.164672978
   0.166643516   0.166626947   0.499999983
   0.165158723   0.165083874   0.835327037
   0.168640805   0.502040137   0.171814897
   0.166682107   0.500050532   0.499999990
   0.168640803   0.502040134   0.828185096
   0.165101621   0.834907264   0.166199283
   0.166494239   0.833510516   0.499999986
   0.165101617   0.834907264   0.833800743
   0.499973966   0.166632347   0.166638096
   0.500005382   0.166627713   0.499999993
   0.499973970   0.166632349   0.833361920
   0.500008349   0.499999736   0.166671169
   0.500003227   0.500001228   0.499999981
   0.500008349   0.499999736   0.833328835
   0.500013351   0.833413906   0.166631452
   0.500001151   0.833370249   0.499999982
   0.500013351   0.833413908   0.833368555
   0.834893820   0.165098381   0.166112621
   0.833520837   0.166507762   0.499999989
   0.834893819   0.165098385   0.833887385
   0.833384403   0.500063026   0.166713721
   0.833413734   0.500062634   0.499999989
   0.833384403   0.500063028   0.833286286
   0.834934717   0.834875404   0.164593134
   0.833413381   0.833421618   0.499999992
   0.834934718   0.834875402   0.835406863
   0.103462648   0.103447399   0.999999987
   0.101793014   0.101804924   0.334173405
   0.101793011   0.101804921   0.665826604
   0.101456689   0.434780404   0.333275776
   0.101456691   0.434780406   0.666724245
   0.101774679   0.767756936   0.999999985
   0.101516782   0.767891701   0.333613414
   0.101516782   0.767891701   0.666386601
   0.434840382   0.101508027   0.999999988
   0.434829189   0.101491813   0.333329662
   0.434829191   0.101491814   0.666670337
   0.434796973   0.434872366   0.999999993
   0.434832961   0.434831882   0.333311162
   0.434832958   0.434831880   0.666688858
   0.434849337   0.768176327   0.999999987
   0.434822325   0.768156281   0.333334880
   0.434822325   0.768156277   0.666665142
   0.767782656   0.101728587   0.999999989
   0.767890330   0.101517195   0.333625185
   0.767890331   0.101517195   0.666374815
   0.768184315   0.434850260   0.999999993
   0.768169665   0.434822580   0.333328652
   0.768169663   0.434822579   0.666671349
   0.767352096   0.767368533   0.999999991
   0.768244296   0.768257063   0.333144270
   0.768244293   0.768257062   0.666855747
   0.232451751   0.232970327   0.999999992
   0.231722000   0.231711870   0.333167207
   0.231722002   0.231711872   0.666832797
   0.229344236   0.562672629   0.999999991
   0.232024511   0.565358801   0.333488037
   0.232024510   0.565358799   0.666511982
   0.232212001   0.898277576   0.999999985
   0.232114833   0.898491143   0.333624457
   0.232114835   0.898491147   0.666375546
   0.565178159   0.231840035   0.999999989
   0.565170653   0.231829861   0.333329770
   0.565170653   0.231829861   0.666670243
   0.565180460   0.565168324   0.999999986
   0.565176112   0.565173681   0.333321132
   0.565176111   0.565173682   0.666678885
   0.565163868   0.898478964   0.999999989
   0.565177661   0.898502114   0.333325771
   0.565177662   0.898502114   0.666674245
   0.898177713   0.232085241   0.999999987
   0.898491660   0.232118863   0.333626173
   0.898491661   0.232118863   0.666373844
   0.898809923   0.564981479   0.999999988
   0.898465609   0.565152603   0.333356965
   0.898465611   0.565152602   0.666643049
   0.896560979   0.896563524   0.999999990
   0.898196872   0.898202534   0.334175078
   0.898196876   0.898202532   0.665824928
   0.065357723   0.269266022   0.166050867
   0.065140344   0.268057241   0.499999992
   0.065357717   0.269266026   0.833949155
   0.065304096   0.600713866   0.165726157
   0.065089334   0.601604133   0.499999993
   0.065304098   0.600713864   0.834273859
   0.066627135   0.933366841   0.170322265
   0.064953853   0.935045538   0.499999987
   0.066627136   0.933366843   0.829677743
   0.398407698   0.268206561   0.166588080
   0.398535567   0.268159960   0.499999993
   0.398407696   0.268206565   0.833411925
   0.398417035   0.601457610   0.166565247
   0.398567769   0.601528371   0.499999993
   0.398417033   0.601457612   0.833434761
   0.398485388   0.934824771   0.166671604
   0.398487160   0.934831115   0.499999991
   0.398485389   0.934824768   0.833328420
   0.731935530   0.268038324   0.166678647
   0.731825169   0.268157001   0.499999984
   0.731935525   0.268038328   0.833321373
   0.731842988   0.601522815   0.166655045
   0.731829084   0.601488158   0.499999986
   0.731842986   0.601522815   0.833344976
   0.731464970   0.934941264   0.166969610
   0.731914583   0.934845362   0.499999987
   0.731464967   0.934941263   0.833030391
   0.268545889   0.065039266   0.166967084
   0.268081820   0.065149064   0.499999996
   0.268545891   0.065039266   0.833032937
   0.267345940   0.398606221   0.165709066
   0.268260359   0.398421549   0.499999987
   0.267345944   0.398606218   0.834290933
   0.267988075   0.731885963   0.166561906
   0.268187119   0.731908941   0.499999996
   0.267988079   0.731885961   0.833438120
   0.601507611   0.065185454   0.166675535
   0.601509343   0.065176253   0.499999991
   0.601507612   0.065185454   0.833324474
   0.601502158   0.398494229   0.166665744
   0.601504809   0.398494060   0.499999988
   0.601502158   0.398494225   0.833334273
   0.601522711   0.731854695   0.166657590
   0.601498851   0.731831249   0.499999987
   0.601522710   0.731854692   0.833342430
   0.933372979   0.066597125   0.170326498
   0.935038785   0.064944348   0.499999986
   0.933372981   0.066597125   0.829673525
   0.935548036   0.398798339   0.165793170
   0.934796607   0.398475828   0.499999992
   0.935548039   0.398798335   0.834206832
   0.935010032   0.731386608   0.166896304
   0.934839982   0.731941795   0.499999992
   0.935010031   0.731386608   0.833103724
H107LiMg53
   1.00000000
   13.503694732   0.000101693  -0.000000000
   0.000101693   13.503695926   0.000000000
  -0.000000000   0.000000000   9.029450690
  Li  Mg  H
  1  53  107
Direct configuration=     4
   0.000009197   0.000024493   0.999999992
   0.000010224   0.999958201   0.329369337
   0.000010234   0.999958220   0.670630664
   0.996104124   0.329157633   0.000000022
   0.999860838   0.333129548   0.333676149
   0.999860834   0.333129541   0.666323790
   0.999679884   0.667281840   0.000000026
   0.000022644   0.666523158   0.333130249
   0.000022641   0.666523159   0.666869738
   0.333145422   0.000059154   0.000000011
   0.333239611   0.999967686   0.333527376
   0.333239607   0.999967691   0.666472640
   0.333888225   0.333255213   0.000000007
   0.332799252   0.333028134   0.332896424
   0.332799253   0.333028137   0.667103529
   0.332516905   0.666573146   0.000000015
   0.333379778   0.667034516   0.333016026
   0.333379780   0.667034524   0.666983957
   0.666880322   0.999913454   0.000000017
   0.666769329   0.000042072   0.333521234
   0.666769331   0.000042074   0.666478760
   0.667019836   0.333019630   0.000000066
   0.666787545   0.333179852   0.333217510
   0.666787543   0.333179858   0.666782427
   0.666488269   0.666537526   0.000000014
   0.666963727   0.666964200   0.333294745
   0.666963731   0.666964206   0.666705256
   0.164866547   0.164993972   0.165527187
   0.167012781   0.166926769   0.500000006
   0.164866561   0.164993966   0.834472767
   0.170099993   0.503546463   0.173965490
   0.166379865   0.499760872   0.500000029
   0.170099988   0.503546457   0.826034483
   0.165736888   0.834292302   0.166777298
   0.166142536   0.833925943   0.500000027
   0.165736885   0.834292304   0.833222659
   0.499975770   0.166598253   0.166610446
   0.500004790   0.166579267   0.500000029
   0.499975773   0.166598240   0.833389541
   0.500047626   0.499982463   0.166681005
   0.500074580   0.499993624   0.500000018
   0.500047634   0.499982460   0.833319009
   0.500042316   0.833500262   0.166654337
   0.500018364   0.833400243   0.500000029
   0.500042314   0.833500267   0.833345644
   0.834081759   0.165601647   0.166916316
   0.833836331   0.166134657   0.500000010
   0.834081745   0.165601655   0.833083631
   0.833611864   0.500029478   0.166586426
   0.833414056   0.500120043   0.500000021
   0.833611871   0.500029480   0.833413537
   0.835221104   0.835140645   0.165538075
   0.833063065   0.833105967   0.500000030
   0.835221100   0.835140636   0.834461879
   0.103303066   0.103320246   0.000000011
   0.101719186   0.101794939   0.334209086
   0.101719195   0.101794944   0.665790925
   0.101531944   0.434855246   0.333954654
   0.101531951   0.434855259   0.666045327
   0.102024963   0.767703839   0.000000011
   0.101682897   0.767541303   0.333864761
   0.101682908   0.767541306   0.666135245
   0.434783007   0.101478464   0.000000004
   0.434834772   0.101496494   0.333330676
   0.434834773   0.101496497   0.666669320
   0.434813040   0.434959718   0.000000003
   0.434731642   0.434782351   0.333235015
   0.434731642   0.434782350   0.666764958
   0.434990267   0.768277365   0.000000004
   0.434835255   0.768147660   0.333308250
   0.434835262   0.768147663   0.666691731
   0.767801214   0.101978793   0.000000011
   0.767651615   0.101738059   0.333923736
   0.767651618   0.101738061   0.666076261
   0.768254823   0.434918171   0.000000009
   0.768260697   0.434868186   0.333304115
   0.768260698   0.434868188   0.666695880
   0.767039018   0.767047158   0.000000016
   0.768623846   0.768635633   0.332200038
   0.768623850   0.768635644   0.667799959
   0.232553338   0.233537667   0.000000008
   0.231333499   0.231325135   0.332237520
   0.231333486   0.231325117   0.667762488
   0.227803473   0.561098449   0.000000006
   0.232931742   0.566245843   0.335946150
   0.232931733   0.566245838   0.664053858
   0.232273515   0.898101859   0.000000013
   0.232374867   0.898289788   0.333920840
   0.232374861   0.898289788   0.666079145
   0.565106801   0.231833724   0.000000003
   0.565101952   0.231792738   0.333323901
   0.565101947   0.231792736   0.666676080
   0.565169653   0.565157760   0.999999993
   0.565190836   0.565188458   0.333286434
   0.565190833   0.565188456   0.666713555
   0.565215756   0.898510432   0.000000004
   0.565182364   0.898507547   0.333342140
   0.565182361   0.898507541   0.666657861
   0.896635905   0.230755451   0.000000010
   0.898320212   0.232408007   0.333826271
   0.898320208   0.232408004   0.666173753
   0.899092372   0.564845711   0.000000014
   0.898458188   0.565142870   0.333386140
   0.898458190   0.565142869   0.666613860
   0.896768318   0.896729997   0.000000027
   0.898259458   0.898255133   0.334225368
   0.898259414   0.898255100   0.665774619
   0.065817950   0.269971030   0.165482833
   0.065074685   0.268016026   0.500000019
   0.065817960   0.269971018   0.834517170
   0.065080459   0.600167659   0.165252786
   0.065046267   0.601670283   0.500000013
   0.065080467   0.600167654   0.834747196
   0.066140945   0.933839544   0.172150379
   0.064414252   0.935579225   0.500000005
   0.066140944   0.933839553   0.827849628
   0.398370074   0.268329751   0.166652331
   0.398577315   0.268169551   0.500000017
   0.398370085   0.268329738   0.833347671
   0.398160644   0.601329769   0.166291299
   0.398517511   0.601577162   0.500000010
   0.398160642   0.601329768   0.833708706
   0.398478442   0.934831899   0.166630449
   0.398467475   0.934899634   0.500000006
   0.398478443   0.934831899   0.833369532
   0.732570052   0.267419982   0.166695079
   0.731831230   0.268138268   0.500000015
   0.732570109   0.267419950   0.833304904
   0.731813231   0.601453935   0.166704551
   0.731795061   0.601472667   0.500000002
   0.731813231   0.601453932   0.833295445
   0.731351617   0.934929624   0.167077727
   0.731882364   0.934916721   0.500000010
   0.731351617   0.934929621   0.832922255
   0.268677836   0.065026187   0.167067406
   0.268102793   0.065076872   0.500000007
   0.268677832   0.065026195   0.832932573
   0.266808878   0.398484843   0.165336481
   0.268333499   0.398448129   0.500000016
   0.266808880   0.398484841   0.834663530
   0.267241881   0.732246148   0.166341760
   0.268197980   0.731896188   0.500000011
   0.267241876   0.732246150   0.833658232
   0.601495236   0.065181698   0.166642525
   0.601535671   0.065112290   0.500000011
   0.601495232   0.065181700   0.833357454
   0.601500104   0.398487593   0.166646587
   0.601523509   0.398467983   0.500000021
   0.601500078   0.398487625   0.833353401
   0.601439138   0.731831130   0.166715856
   0.601497808   0.731805030   0.500000006
   0.601439134   0.731831129   0.833284130
   0.933849828   0.066129837   0.172119265
   0.935571822   0.064402617   0.500000008
   0.933849837   0.066129836   0.827880739
   0.936150852   0.399241401   0.165080839
   0.934789003   0.398454802   0.500000022
   0.936150838   0.399241414   0.834919148
   0.935117556   0.731149628   0.167007561
   0.934888637   0.731945486   0.500000004
   0.935117559   0.731149621   0.832992418
H107LiMg53
   1.00000000
   13.503770864   0.000112778  -0.000000000
   0.000112778   13.503772183   0.000000000
  -0.000000000   0.000000000   9.029400520
  Li  Mg  H
  1  53  107
Direct configuration=     5
   0.000009912   0.000026442   0.999999993
   0.000011503   0.999956606   0.329394556
   0.000011513   0.999956627   0.670605437
   0.995840668   0.328887327   0.000000020
   0.999861402   0.333136482   0.333671289
   0.999861398   0.333136476   0.666328652
   0.999662509   0.667299942   0.000000027
   0.000029956   0.666493183   0.333108233
   0.000029953   0.666493183   0.666891754
   0.333145664   0.000063231   0.000000011
   0.333245273   0.999965842   0.333542598
   0.333245268   0.999965848   0.666457413
   0.333925395   0.333264644   0.000000006
   0.332744978   0.333004213   0.332850062
   0.332744979   0.333004216   0.667149887
   0.332393164   0.666529548   0.000000015
   0.333416106   0.667110916   0.332998947
   0.333416109   0.667110924   0.667001039
   0.666887462   0.999913459   0.000000017
   0.666764407   0.000044494   0.333535914
   0.666764410   0.000044497   0.666464072
   0.667059123   0.332983648   0.000000065
   0.666805780   0.333161248   0.333205445
   0.666805776   0.333161252   0.666794494
   0.666465506   0.666517849   0.000000015
   0.666993056   0.666993670   0.333286233
   0.666993059   0.666993675   0.666713760
   0.164796374   0.164945492   0.165514551
   0.167049509   0.166956423   0.500000010