H107LiMg53
   1.00000000
   13.503017152  -0.000000046   0.000000005
  -0.000000046   13.503017151  -0.000000005
   0.000000003  -0.000000003   9.029981242
  Li  Mg  H
  1  53  107
Direct configuration=     1
   0.999999126   0.000000874   0.000000173
   0.999999018   0.000000982   0.332895228
   0.999999997   0.000000002   0.667104031
   0.000002977   0.333306415   0.999999264
   0.000001205   0.333323904   0.333326775
   0.999998314   0.333321486   0.666673965
   0.999999241   0.666696265   0.000000341
   0.000000980   0.666678694   0.333325728
   0.000001852   0.666678718   0.666673950
   0.333303735   0.000000758   0.000000341
   0.333321305   0.999999019   0.333325728
   0.333321282   0.999998148   0.666673950
   0.333323249   0.333326566   0.999991836
   0.333323109   0.333326413   0.333336942
   0.333324148   0.333333154   0.666671225
   0.333166292   0.666833708   0.999574711
   0.333171765   0.666828235   0.333759991
   0.333325138   0.666674862   0.666664631
   0.666693585   0.999997023   0.999999264
   0.666676096   0.999998794   0.333326775
   0.666678514   0.000001685   0.666673965
   0.666672203   0.333327797   0.000009763
   0.666666857   0.333333143   0.333325502
   0.666666469   0.333333531   0.666664739
   0.666673434   0.666676752   0.999991837
   0.666673587   0.666676891   0.333336941
   0.666666846   0.666675852   0.666671225
   0.166533239   0.166533118   0.166479004
   0.166656500   0.166657307   0.499999488
   0.166534069   0.166534884   0.833521601
   0.166638724   0.499987580   0.166664092
   0.166669615   0.499995353   0.500007359
   0.166667478   0.499995455   0.833328565
   0.166500233   0.833499766   0.166620920
   0.166664684   0.833335315   0.499996467
   0.166534733   0.833465267   0.833382922
   0.499999149   0.166662293   0.166664039
   0.500000216   0.166662851   0.500001890
   0.500000345   0.166660718   0.833334070
   0.500182591   0.499817409   0.166667616
   0.500007562   0.499992438   0.500035535
   0.500007581   0.499992419   0.833296780
   0.500012420   0.833361276   0.166664092
   0.500004647   0.833330385   0.500007359
   0.500004544   0.833332522   0.833328565
   0.833474621   0.166525379   0.166620770
   0.833344545   0.166655454   0.499999801
   0.833474230   0.166525769   0.833379454
   0.833337706   0.500000851   0.166664038
   0.833337149   0.499999784   0.500001890
   0.833339282   0.499999655   0.833334069
   0.833466882   0.833466760   0.166479004
   0.833342693   0.833343500   0.499999488
   0.833465116   0.833465931   0.833521601
   0.101608822   0.101609144   0.000000180
   0.101465710   0.101466093   0.333405239
   0.101465847   0.101466022   0.666594496
   0.101445705   0.434777376   0.000006448
   0.101443855   0.434776092   0.333325894
   0.101436476   0.434771462   0.666667653
   0.101461603   0.768070501   0.000005794
   0.101441965   0.768080657   0.333350610
   0.101431167   0.768085685   0.666643880
   0.434773104   0.101440266   0.999999549
   0.434771836   0.101438419   0.333332793
   0.434771983   0.101438779   0.666667658
   0.434750377   0.434829658   0.000071135
   0.434750053   0.434829350   0.333261754
   0.434773355   0.434770239   0.666667103
   0.434759430   0.768041001   0.000078058
   0.434759877   0.768041815   0.333254591
   0.434779938   0.768113423   0.666667430
   0.768073126   0.101456733   0.000000037
   0.768083336   0.101437457   0.333356055
   0.768083576   0.101437702   0.666643896
   0.768107756   0.434772412   0.999997818
   0.768108439   0.434772691   0.333334742
   0.768106663   0.434771941   0.666667438
   0.768040387   0.768039689   0.000000459
   0.768110017   0.768109348   0.333325371
   0.768109404   0.768108676   0.666674120
   0.231960311   0.231959613   0.000000459
   0.231890652   0.231889983   0.333325372
   0.231891324   0.231890596   0.666674120
   0.231958999   0.565240570   0.000078058
   0.231958184   0.565240123   0.333254591
   0.231886578   0.565220062   0.666667430
   0.231929499   0.898538397   0.000005794
   0.231919344   0.898558035   0.333350609
   0.231914315   0.898568834   0.666643880
   0.565227588   0.231892244   0.999997818
   0.565227309   0.231891561   0.333334742
   0.565228059   0.231893337   0.666667438
   0.565170342   0.565249623   0.000071135
   0.565170649   0.565249947   0.333261754
   0.565229761   0.565226645   0.666667103
   0.565222625   0.898554295   0.000006448
   0.565223909   0.898556145   0.333325894
   0.565228539   0.898563525   0.666667653
   0.898543267   0.231926875   0.000000037
   0.898562543   0.231916664   0.333356055
   0.898562298   0.231916424   0.666643897
   0.898559735   0.565226896   0.999999549
   0.898561581   0.565228164   0.333332793
   0.898561221   0.565228017   0.666667658
   0.898390856   0.898391178   0.000000180
   0.898533908   0.898534290   0.333405239
   0.898533979   0.898534153   0.666594496
   0.065216582   0.268136264   0.166692220
   0.065226314   0.268098033   0.500000347
   0.065216876   0.268136345   0.833307436
   0.065231431   0.601442766   0.166668125
   0.065227120   0.601440242   0.499998943
   0.065227047   0.601440779   0.833332920
   0.065357951   0.934642049   0.166966713
   0.065215529   0.934784471   0.500000788
   0.065359190   0.934640810   0.833032615
   0.398557540   0.268105334   0.166666011
   0.398562633   0.268104920   0.500000184
   0.398559985   0.268103144   0.833333801
   0.398565239   0.601434761   0.499989136
   0.398564705   0.601435295   0.833344354
   0.398557234   0.934768570   0.166668125
   0.398559758   0.934772880   0.499998943
   0.398559221   0.934772953   0.833332920
   0.731900164   0.268099836   0.166665878
   0.731894246   0.268105754   0.499999464
   0.731898490   0.268101510   0.833334654
   0.731894666   0.601442460   0.166666011
   0.731895080   0.601437366   0.500000184
   0.731896856   0.601440015   0.833333801
   0.731863736   0.934783418   0.166692220
   0.731901967   0.934773686   0.500000347
   0.731863655   0.934783124   0.833307436
   0.268136976   0.065218417   0.166692230
   0.268098625   0.065227026   0.499999404
   0.268136927   0.065217598   0.833308374
   0.268118076   0.398584911   0.166666068
   0.268107523   0.398558494   0.500002388
   0.268105755   0.398555859   0.833331606
   0.268302186   0.731697814   0.166665373
   0.268096729   0.731903271   0.499993386
   0.268092597   0.731907403   0.833340914
   0.601439990   0.065229536   0.166668145
   0.601439375   0.065229242   0.500000163
   0.601439905   0.065229170   0.833331692
   0.601436610   0.398563390   0.166666581
   0.601438953   0.398561047   0.500000463
   0.601439472   0.398560528   0.833332956
   0.601415090   0.731881923   0.166666068
   0.601441506   0.731892477   0.500002388
   0.601444141   0.731894245   0.833331606
   0.934641737   0.065358263   0.166966748
   0.934785139   0.065214861   0.499999901
   0.934641407   0.065358593   0.833033255
   0.934770464   0.398560010   0.166668146
   0.934770758   0.398560625   0.500000163
   0.934770830   0.398560095   0.833331692
   0.934781583   0.731863024   0.166692230
   0.934772974   0.731901375   0.499999404
   0.934782402   0.731863073   0.833308374
H107LiMg53
   1.00000000
   13.503220098  -0.000002377   0.000000053
  -0.000002377   13.503220097  -0.000000053
   0.000000036  -0.000000035   9.029766149
  Li  Mg  H
  1  53  107
Direct configuration=     2
   0.999988026   0.000011972   0.000001094
   0.999985676   0.000014290   0.328341614
   0.000000076   0.999999895   0.671653845
   0.000038284   0.333032332   0.999991992
   0.000013175   0.333229377   0.333275205
   0.999978021   0.333200231   0.666732856
   0.999985552   0.666997524   0.000003941
   0.000010259   0.666799569   0.333263646
   0.000017912   0.666800236   0.666732604
   0.333002478   0.000014434   0.000003938
   0.333200425   0.999989734   0.333263650
   0.333199754   0.999982075   0.666732606
   0.333233014   0.333279959   0.999911987
   0.333208715   0.333255478   0.333373307
   0.333216727   0.333321077   0.666714807
   0.331299396   0.668700603   0.994949544
   0.331370060   0.668629937   0.338391559
   0.333249238   0.666750786   0.666649510
   0.666967657   0.999961705   0.999991992
   0.666770609   0.999986799   0.333275207
   0.666799760   0.000021964   0.666732856
   0.666747270   0.333252710   0.000101197
   0.666678903   0.333321086   0.333247987
   0.666669778   0.333330228   0.666650854
   0.666720041   0.666766980   0.999911986
   0.666744522   0.666791269   0.333373296
   0.666678899   0.666783274   0.666714804
   0.165100754   0.165101761   0.164538106
   0.166564454   0.166574275   0.499994952
   0.165111701   0.165121608   0.835467928
   0.166332314   0.499851516   0.166632452
   0.166704525   0.499947146   0.500059552
   0.166679297   0.499950408   0.833308254
   0.164819986   0.835180015   0.166172070
   0.166607439   0.833392577   0.499951484
   0.165158498   0.834841520   0.833878858
   0.499989356   0.166609993   0.166631721
   0.500001137   0.166616297   0.500023489
   0.500004741   0.166591109   0.833344789
   0.502209745   0.497790271   0.166673670
   0.500088926   0.499911064   0.500396474
   0.500089153   0.499910856   0.832928877
   0.500148493   0.833667691   0.166632440
   0.500052871   0.833295473   0.500059566
   0.500049610   0.833320692   0.833308258
   0.834936994   0.165063003   0.166170835
   0.833485372   0.166514631   0.499997902
   0.834930965   0.165069047   0.833831582
   0.833390024   0.500010626   0.166631728
   0.833383724   0.499998848   0.500023495
   0.833408869   0.499995276   0.833344783
   0.834898269   0.834899225   0.164538106
   0.833425725   0.833435556   0.499994948
   0.834878411   0.834888295   0.835467930
   0.103448106   0.103451462   0.000002517
   0.101806654   0.101810772   0.334165788
   0.101808065   0.101810941   0.665830568
   0.101584155   0.434888968   0.000074030
   0.101565358   0.434878028   0.333251835
   0.101470669   0.434816676   0.666674057
   0.101787893   0.767751093   0.000081950
   0.101562060   0.767857638   0.333537407
   0.101426008   0.767922974   0.666384478
   0.434833254   0.101513604   0.999994498
   0.434822591   0.101494893   0.333331410
   0.434824085   0.101498872   0.666674084
   0.434549874   0.435522461   0.000858339
   0.434545826   0.435518657   0.332472912
   0.434839778   0.434800620   0.666668690
   0.434695533   0.767390503   0.000927422
   0.434700058   0.767400198   0.332401896
   0.434918348   0.768258756   0.666671418
   0.767786391   0.101715895   0.000000156
   0.767894230   0.101494650   0.333615044
   0.767897908   0.101498727   0.666384643
   0.768189778   0.434833049   0.999975797
   0.768198243   0.434835635   0.333352689
   0.768178917   0.434826868   0.666671478
   0.767391352   0.767383470   0.000005992
   0.768240391   0.768232848   0.333186970
   0.768232754   0.768224012   0.666806556
   0.232616526   0.232608651   0.000005987
   0.231767154   0.231759622   0.333186972
   0.231775990   0.231767237   0.666806561
   0.232609502   0.565304474   0.000927419
   0.232599784   0.565299923   0.332401890
   0.231741219   0.565081625   0.666671421
   0.232248907   0.898212111   0.000081945
   0.232142353   0.898437932   0.333537399
   0.232077023   0.898573994   0.666384482
   0.565166952   0.231810235   0.999975800
   0.565164357   0.231801758   0.333352690
   0.565173131   0.231821078   0.666671474
   0.564477522   0.565450113   0.000858341
   0.564481341   0.565454173   0.332472908
   0.565199383   0.565160229   0.666668689
   0.565111038   0.898415846   0.000074039
   0.565121994   0.898434673   0.333251836
   0.565183321   0.898529331   0.666674048
   0.898284100   0.232213609   0.000000147
   0.898505350   0.232105767   0.333615044
   0.898501286   0.232102095   0.666384651
   0.898486398   0.565166752   0.999994494
   0.898505116   0.565177424   0.333331405
   0.898501134   0.565175914   0.666674089
   0.896548532   0.896551905   0.000002515
   0.898189238   0.898193348   0.334165785
   0.898189079   0.898191941   0.665830577
   0.065042930   0.268525954   0.166963789
   0.065151018   0.268079254   0.500003447
   0.065046150   0.268526825   0.833032811
   0.065213647   0.601550598   0.166677596
   0.065166724   0.601516249   0.499984039
   0.065168713   0.601521038   0.833338281
   0.066636883   0.933363125   0.170208215
   0.064997657   0.935002341   0.500007439
   0.066662909   0.933337088   0.829782677
   0.398461257   0.268165235   0.166658516
   0.398518687   0.268161942   0.500000922
   0.398490634   0.268140517   0.833340492
   0.398543141   0.601456870   0.499913854
   0.398539825   0.601460177   0.833425261
   0.398449385   0.934786364   0.166677589
   0.398483757   0.934833275   0.499984041
   0.398478944   0.934831302   0.833338286
   0.731937857   0.268062147   0.166655573
   0.731831964   0.268168039   0.499991946
   0.731923954   0.268076045   0.833352396
   0.731834756   0.601538772   0.166658511
   0.731838049   0.601481323   0.500000918
   0.731859510   0.601509338   0.833340498
   0.731474044   0.934957075   0.166963783
   0.731920725   0.934848998   0.500003441
   0.731473181   0.934953847   0.833032823
   0.268533649   0.065064367   0.166963900
   0.268085450   0.065159964   0.499991813
   0.268532919   0.065055208   0.833044428
   0.268321039   0.398791451   0.166659277
   0.268189440   0.398469976   0.500028481
   0.268168132   0.398442075   0.833313015
   0.270472168   0.729527836   0.166650157
   0.268020946   0.731979060   0.500028811
   0.267930650   0.732069347   0.833319181
   0.601513672   0.065191911   0.166677817
   0.601508928   0.065185296   0.500001434
   0.601513633   0.065187256   0.833320762
   0.601534303   0.398465694   0.166661239
   0.601501333   0.398498664   0.499999405
   0.601504349   0.398495653   0.833339359
   0.601208551   0.731678959   0.166659281
   0.601530019   0.731810572   0.500028498
   0.601557916   0.731831886   0.833313007
   0.933352336   0.066647663   0.170211049
   0.935012782   0.064987229   0.499998858
   0.933346949   0.066653057   0.829788566
   0.934808079   0.398486328   0.166677809
   0.934814691   0.398491079   0.500001441
   0.934812740   0.398486371   0.833320765
   0.934935607   0.731466376   0.166963903
   0.934840050   0.731914549   0.499991804
   0.934944773   0.731467095   0.833044426
H107LiMg53
   1.00000000
   13.503243306  -0.000005084   0.000000043
  -0.000005084   13.503243305  -0.000000043
   0.000000029  -0.000000029   9.029750926
  Li  Mg  H
  1  53  107
Direct configuration=     3
   0.999986014   0.000013983   0.000000259
   0.999982647   0.000017318   0.328409144
   0.000000219   0.999999750   0.671590104
   0.000041831   0.333038692   0.999992470
   0.000012487   0.333231288   0.333288549
   0.999975687   0.333200967   0.666719043
   0.999980586   0.666990485   0.000003963
   0.000009473   0.666796983   0.333277449
   0.000015014   0.666797891   0.666718808
   0.333009517   0.000019398   0.000003958
   0.333203011   0.999990517   0.333277455
   0.333202101   0.999984973   0.666718808
   0.333245505   0.333301431   0.999918245
   0.333198470   0.333254184   0.333367662
   0.333203120   0.333307622   0.666714277
   0.331208653   0.668791346   0.994842918
   0.331286922   0.668713075   0.338485759
   0.333257147   0.666742877   0.666658786
   0.666961298   0.999958158   0.999992470
   0.666768699   0.999987487   0.333288551
   0.666799021   0.000024296   0.666719040
   0.666768394   0.333231588   0.000088865
   0.666693428   0.333306563   0.333250546
   0.666678697   0.333321308   0.666660667
   0.666698568   0.666754490   0.999918244
   0.666745816   0.666801514   0.333367652
   0.666692354   0.666796885   0.666714274
   0.165088275   0.165091380   0.164599213
   0.166582682   0.166593028   0.499995715
   0.165100407   0.165110874   0.835406078
   0.166326135   0.499847893   0.166631518
   0.166711592   0.499947863   0.500035604
   0.166685958   0.499953100   0.833333217
   0.164896087   0.835103914   0.166204916
   0.166574317   0.833425699   0.499946208
   0.165185741   0.834814277   0.833850760
   0.499988504   0.166607343   0.166630697
   0.499999736   0.166613536   0.500024928
   0.500005331   0.166587913   0.833344372
   0.502292815   0.497707201   0.166673527
   0.500089467   0.499910524   0.500382069
   0.500089682   0.499910325   0.832943273
   0.500152116   0.833673869   0.166631509
   0.500052150   0.833288409   0.500035616
   0.500046916   0.833314034   0.833333223
   0.834895370   0.165104627   0.166203938
   0.833503682   0.166496321   0.499998074
   0.834888199   0.165111812   0.833798291
   0.833392674   0.500011482   0.166630702
   0.833386484   0.500000249   0.500024933
   0.833412068   0.499994683   0.833344367
   0.834908645   0.834911710   0.164599213
   0.833406971   0.833417328   0.499995713
   0.834889143   0.834899588   0.835406076
   0.103431596   0.103434650   0.000002608
   0.101801991   0.101805810   0.334164643
   0.101803184   0.101806884   0.665831268
   0.101587911   0.434890667   0.000073487
   0.101571402   0.434883157   0.333252951
   0.101468614   0.434815191   0.666673413
   0.101810057   0.767742742   0.000095204
   0.101585675   0.767837888   0.333540852
   0.101439113   0.767910608   0.666368271
   0.434829528   0.101510574   0.999994196
   0.434822363   0.101494180   0.333332332
   0.434823647   0.101497989   0.666673465
   0.434526463   0.435552598   0.000892284
   0.434521411   0.435547901   0.332438535
   0.434838929   0.434796516   0.666669138
   0.434710739   0.767363593   0.000949373
   0.434714857   0.767373684   0.332380082
   0.434919977   0.768262397   0.666671142
   0.767783516   0.101723699   0.999999936
   0.767880472   0.101504419   0.333631451
   0.767884971   0.101509718   0.666368448
   0.768189764   0.434836140   0.999976597
   0.768198849   0.434838264   0.333352267
   0.768180606   0.434829227   0.666671105
   0.767375117   0.767367518   0.000006779
   0.768261127   0.768253847   0.333135553
   0.768253308   0.768244219   0.666857375
   0.232632478   0.232624886   0.000006775
   0.231746155   0.231738885   0.333135554
   0.231755782   0.231746683   0.666857379
   0.232636413   0.565289268   0.000949369
   0.232626300   0.565285126   0.332380078
   0.231737579   0.565079996   0.666671145
   0.232257258   0.898189947   0.000095199
   0.232162105   0.898414318   0.333540845
   0.232089389   0.898560888   0.666368275
   0.565163861   0.231810248   0.999976600
   0.565161728   0.231801151   0.333352269
   0.565170773   0.231819392   0.666671101
   0.564447386   0.565473525   0.000892286
   0.564452097   0.565478587   0.332438531
   0.565203487   0.565161077   0.666669137
   0.565109338   0.898412088   0.000073495
   0.565116862   0.898428626   0.333252952
   0.565184807   0.898531387   0.666673405
   0.898276296   0.232216485   0.999999928
   0.898495582   0.232119526   0.333631452
   0.898490296   0.232115034   0.666368456
   0.898489428   0.565170478   0.999994195
   0.898505827   0.565177652   0.333332326
   0.898502018   0.565176352   0.666673470
   0.896565345   0.896568415   0.000002607
   0.898194202   0.898198012   0.334164640
   0.898193136   0.898196822   0.665831276
   0.065042905   0.268532043   0.166968553
   0.065146895   0.268081306   0.500002846
   0.065045938   0.268532721   0.833028654
   0.065212650   0.601554690   0.166675475
   0.065168534   0.601515386   0.499980551
   0.065173155   0.601519085   0.833343957
   0.066593712   0.933406295   0.170295139
   0.064970102   0.935029895   0.500005825
   0.066633604   0.933366393   0.829694956
   0.398465264   0.268168825   0.166661800
   0.398520329   0.268166526   0.499999631
   0.398495561   0.268144623   0.833338491
   0.398538473   0.601461537   0.499950625
   0.398536857   0.601463146   0.833389417
   0.398445297   0.934787358   0.166675469
   0.398484621   0.934831465   0.499980553
   0.398480898   0.934826859   0.833343963
   0.731967334   0.268032671   0.166657089
   0.731831020   0.268168983   0.499990383
   0.731957745   0.268042254   0.833352372
   0.731831169   0.601534762   0.166661796
   0.731833466   0.601479680   0.499999628
   0.731855402   0.601504414   0.833338498
   0.731467958   0.934957098   0.166968546
   0.731918675   0.934853118   0.500002841
   0.731467285   0.934954059   0.833028667
   0.268539060   0.065064707   0.166968678
   0.268086919   0.065156399   0.499990481
   0.268538243   0.065055525   0.833040998
   0.268332474   0.398807960   0.166662595
   0.268191546   0.398470752   0.500029288
   0.268169766   0.398446126   0.833308833
   0.270525655   0.729474350   0.166651716
   0.267969273   0.732030734   0.500161031
   0.267843945   0.732156052   0.833187595
   0.601513098   0.065190955   0.166675663
   0.601510459   0.065181451   0.500000951
   0.601514023   0.065186017   0.833323403
   0.601604825   0.398395172   0.166660050
   0.601500937   0.398499060   0.499993358
   0.601501986   0.398498016   0.833346576
   0.601192040   0.731667526   0.166662599
   0.601529246   0.731808463   0.500029303
   0.601553868   0.731830248   0.833308826
   0.933386357   0.066613642   0.170299704
   0.935042516   0.064957496   0.499998884
   0.933380071   0.066619934   0.829699356
   0.934809038   0.398486898   0.166675655
   0.934818537   0.398489546   0.500000957
   0.934813979   0.398485981   0.833323406
   0.934935271   0.731460960   0.166968681
   0.934843614   0.731913080   0.499990471
   0.934944458   0.731461769   0.833040995
H107LiMg53
   1.00000000
   13.503762632  -0.000062788  -0.000000118
  -0.000062788   13.503762635   0.000000119
  -0.000000079   0.000000079   9.029400934
  Li  Mg  H
  1  53  107
Direct configuration=     4
   0.999941407   0.000058574   0.999986053
   0.999918030   0.000081976   0.329214859
   0.000002661   0.999997343   0.670856071
   0.000118271   0.333127800   0.000000533
   0.000002247   0.333263937   0.333543269
   0.999927292   0.333205636   0.666456436
   0.999881372   0.666894396   0.000002978
   0.999995398   0.666757030   0.333541580
   0.999963157   0.666763608   0.666456430
   0.333105651   0.000118600   0.000002992
   0.333242988   0.000004582   0.333541525
   0.333236417   0.000036858   0.666456444
   0.333486567   0.333738217   0.000034485
   0.332968556   0.333219331   0.333250009
   0.332910846   0.333029369   0.666717407
   0.329091117   0.670908894   0.992017751
   0.329342315   0.670657657   0.341054197
   0.333409500   0.666590411   0.666840551
   0.666872248   0.999881704   0.000000516
   0.666736108   0.999997784   0.333543248
   0.666794421   0.000072735   0.666456461
   0.667237009   0.332762970   0.999827442
   0.667014680   0.332985368   0.333320013
   0.666864076   0.333135884   0.666853605
   0.666261840   0.666513431   0.000034467
   0.666780713   0.667031419   0.333250002
   0.666970664   0.667089194   0.666717405
   0.164638435   0.164684981   0.165520577
   0.166938382   0.166962333   0.500009196
   0.164675719   0.164700404   0.834471525
   0.166160521   0.499753317   0.166608261
   0.166864469   0.499957812   0.499564255
   0.166827008   0.500001523   0.833829421
   0.166179751   0.833820245   0.166815346
   0.165859980   0.834140005   0.499841730
   0.165486925   0.834513085   0.833338229
   0.499967368   0.166544932   0.166605651
   0.499970911   0.166551067   0.500055364
   0.500015315   0.166513065   0.833338969
   0.504277766   0.495722233   0.166677836
   0.500105537   0.499894447   0.500134610
   0.500105382   0.499894602   0.833182856
   0.500246678   0.833839488   0.166608270
   0.500042141   0.833135583   0.499564145
   0.499998433   0.833173058   0.833829426
   0.834289555   0.165710462   0.166816130
   0.833901271   0.166098736   0.500000517
   0.834264170   0.165735838   0.833183437
   0.833455026   0.500032641   0.166605603
   0.833448930   0.500029094   0.500055330
   0.833486976   0.499984667   0.833339058
   0.835314959   0.835361594   0.165520605
   0.833037694   0.833061616   0.500009211
   0.835299535   0.835324325   0.834471490
   0.103345313   0.103342401   0.000003144
   0.101753937   0.101752385   0.334280944
   0.101750334   0.101771193   0.665707703
   0.101683548   0.434940692   0.000074881
   0.101708452   0.434998130   0.333264129
   0.101435740   0.434794800   0.666659392
   0.102316126   0.767521743   0.000386789
   0.102100011   0.767388481   0.333637570
   0.101694885   0.767632124   0.665989651
   0.434765466   0.101460855   0.999986619
   0.434824590   0.101486439   0.333353462
   0.434821477   0.101487532   0.666659971
   0.434025103   0.436273819   0.001695313
   0.433987546   0.436239088   0.331626706
   0.434827972   0.434710854   0.666678058
   0.435010881   0.766717023   0.001495381
   0.435009347   0.766737491   0.331833073
   0.434973732   0.768359066   0.666669261
   0.767691873   0.101916540   0.999995552
   0.767570569   0.101716074   0.334013866
   0.767591545   0.101747819   0.665990162
   0.768199922   0.434904843   0.999985997
   0.768223625   0.434899637   0.333346699
   0.768223562   0.434881192   0.666667321
   0.766978316   0.766976903   0.000024630
   0.768690025   0.768688477   0.332067958
   0.768683042   0.768664918   0.667911013
   0.233023067   0.233021670   0.000024638
   0.231311542   0.231309994   0.332067951
   0.231335060   0.231316950   0.667911017
   0.233282962   0.564989135   0.001495378
   0.233262546   0.564990688   0.331833066
   0.231640973   0.565026299   0.666669256
   0.232478234   0.897683871   0.000386778
   0.232611517   0.897899988   0.333637560
   0.232367846   0.898305111   0.665989654
   0.565095183   0.231800119   0.999985983
   0.565100341   0.231776365   0.333346688
   0.565118809   0.231776440   0.666667355
   0.563726172   0.565974913   0.001695306
   0.563760907   0.566012453   0.331626700
   0.565289135   0.565172027   0.666678061
   0.565059279   0.898316405   0.000074886
   0.565001802   0.898291484   0.333264160
   0.565205167   0.898564213   0.666659436
   0.898083456   0.232308130   0.999995551
   0.898283908   0.232429419   0.334013867
   0.898252176   0.232408437   0.665990172
   0.898539131   0.565234530   0.999986600
   0.898513571   0.565175430   0.333353472
   0.898512470   0.565178525   0.666659977
   0.896657631   0.896654710   0.000003155
   0.898247591   0.898246041   0.334280958
   0.898228771   0.898249633   0.665707696
   0.065019194   0.268708514   0.167105956
   0.065059104   0.268116260   0.499989865
   0.065018755   0.268703378   0.832904390
   0.065193855   0.601651208   0.166635956
   0.065202196   0.601501630   0.499902617
   0.065258789   0.601489767   0.833462844
   0.065984057   0.934015951   0.172507356
   0.064390894   0.935609116   0.499971712
   0.066259028   0.933740988   0.827468071
   0.398540349   0.268254953   0.166731267
   0.398540881   0.268267718   0.499967757
   0.398591400   0.268238878   0.833300943
   0.398416804   0.601583206   0.500686888
   0.398434773   0.601565240   0.832678255
   0.398348784   0.934806163   0.166635969
   0.398498436   0.934797748   0.499902618
   0.398510268   0.934741166   0.833462849
   0.732567365   0.267432625   0.166688787
   0.731814744   0.268185265   0.499962535
   0.732625727   0.267374270   0.833347004
   0.731745036   0.601459675   0.166731260
   0.731732291   0.601459121   0.499967746
   0.731761059   0.601408665   0.833300954
   0.731291539   0.934980771   0.167105954
   0.731883762   0.934940872   0.499989862
   0.731296622   0.934981237   0.832904396
   0.268699825   0.065051468   0.167106383
   0.268110983   0.065079821   0.499960405
   0.268698175   0.065038989   0.832933611
   0.268595379   0.399177049   0.166732698
   0.268243042   0.398466757   0.500047237
   0.268214426   0.398517268   0.833219567
   0.271888039   0.728111953   0.166682907
   0.266894480   0.733105523   0.502931228
   0.266078043   0.733921944   0.830434697
   0.601508812   0.065164992   0.166635532
   0.601543593   0.065099718   0.499990098
   0.601530586   0.065155594   0.833374432
   0.603083555   0.396916435   0.166629554
   0.601501082   0.398498914   0.499861674
   0.601477021   0.398522978   0.833508376
   0.600822921   0.731404635   0.166732687
   0.601533243   0.731756960   0.500047260
   0.601482767   0.731785529   0.833219595
   0.933839659   0.066160343   0.172545726
   0.935660594   0.064339408   0.500000986
   0.933820823   0.066179194   0.827439749
   0.934835077   0.398491127   0.166635507
   0.934900311   0.398456367   0.499990104
   0.934844431   0.398469403   0.833374448
   0.934948569   0.731300141   0.167106388
   0.934920196   0.731888992   0.499960380
   0.934961070   0.731301747   0.832933608
H107LiMg53
   1.00000000
   13.503814585  -0.000069271  -0.000000093
  -0.000069271   13.503814589   0.000000094
  -0.000000062   0.000000063   9.029369604
  Li  Mg  H
  1  53  107
Direct configuration=     5
   0.999936399   0.000063583   0.999988038
   0.999913044   0.000086963   0.329341982
   0.000002081   0.999997924   0.670727559
   0.000121882   0.333131319   0.000000376
   0.000003614   0.333273331   0.333548890
   0.999926475   0.333213164   0.666450981
   0.999879641   0.666893407   0.000001090
   0.999995453   0.666749940   0.333549164
   0.999965335   0.666757511   0.666450747
   0.333106639   0.000120335   0.000001101
   0.333250076   0.000004529   0.333549115
   0.333242513   0.000034681   0.666450760
   0.333500269   0.333771116   0.000041887
   0.332949579   0.333219551   0.333234573
   0.332893129   0.333009713   0.666725470
   0.328956721   0.671043292   0.991848237
   0.329228172   0.670771805   0.341204377
   0.333420537   0.666579380   0.666845762
   0.666868727   0.999878094   0.000000362
   0.666726710   0.999996416   0.333548868
   0.666786891   0.000073553   0.666451003
   0.667295839   0.332704145   0.999786671
   0.667060333   0.332939714   0.333355030
   0.666878653   0.333121306   0.666859840
   0.666228938   0.666499729   0.000041870
   0.666780492   0.667050398   0.333234565
   0.666990319   0.667106913   0.666725464
   0.164618781   0.164668593   0.165531094
   0.166957987   0.166984377   0.500008546