H107LiMg53
   1.00000000
   13.503017365   0.000003082  -0.000000039
   0.000003082   13.503017214   0.000000223
  -0.000000026   0.000000149   9.029981335
  Li  Mg  H
  1  53  107
Direct configuration=     1
   0.999998879   0.999998270   0.999995115
   0.999986048   0.000025388   0.332903507
   0.999995651   0.999994757   0.667107436
   0.000000329   0.333302888   0.999998070
   0.999999657   0.333321895   0.333326152
   0.999998493   0.333320356   0.666675790
   0.999991844   0.666687773   0.999963238
   0.999813473   0.666490717   0.333327081
   0.999993270   0.666670536   0.666711278
   0.333294608   0.999990879   0.000004026
   0.333347518   0.000025225   0.333325431
   0.333312080   0.999989081   0.666670585
   0.333329359   0.333330001   0.000000482
   0.333330012   0.333328069   0.333328800
   0.333329143   0.333329778   0.666670721
   0.333320697   0.666668880   0.999992835
   0.333355919   0.666655255   0.333334288
   0.333326850   0.666663133   0.666672549
   0.666696597   0.999999641   0.000000444
   0.666677184   0.000002517   0.333326216
   0.666679074   0.000001578   0.666673376
   0.666673472   0.333326855   0.000000196
   0.666667769   0.333331778   0.333335266
   0.666668170   0.333332154   0.666664534
   0.666669420   0.666670469   0.999997966
   0.666671150   0.666671835   0.333329003
   0.666669701   0.666670771   0.666673061
   0.166535302   0.166535657   0.166479498
   0.166657102   0.166657139   0.500000049
   0.166534557   0.166533815   0.833520416
   0.166668070   0.499997294   0.166655272
   0.166670395   0.499996225   0.500008881
   0.166666836   0.500004312   0.833335971
   0.166693527   0.833629408   0.166185733
   0.166815862   0.833505999   0.500430987
   0.166533477   0.833480676   0.833378930
   0.500001389   0.166663079   0.166664445
   0.500001241   0.166665207   0.499999608
   0.500000244   0.166661955   0.833335949
   0.499997426   0.500002415   0.166666938
   0.499997439   0.500002405   0.500000774
   0.500000343   0.499999984   0.833332289
   0.500000210   0.833338229   0.166664341
   0.500000284   0.833336100   0.499999742
   0.499999285   0.833338296   0.833335936
   0.833475792   0.166524136   0.166620501
   0.833347089   0.166652812   0.500000662
   0.833474044   0.166526288   0.833379002
   0.833339095   0.500000746   0.166673832
   0.833337173   0.500001062   0.499990126
   0.833339526   0.500001235   0.833335933
   0.833461915   0.833470617   0.166471479
   0.833340359   0.833349001   0.500008693
   0.833469030   0.833469901   0.833519850
   0.101608383   0.101608914   0.000000813
   0.101467062   0.101460857   0.333404774
   0.101466509   0.101467173   0.666593138
   0.101439408   0.434772571   0.999999793
   0.101440004   0.434773498   0.333332296
   0.101437541   0.434771267   0.666667901
   0.101453297   0.768072669   0.000014495
   0.101433873   0.768079948   0.666633169
   0.434772414   0.101439791   0.999999222
   0.434771989   0.101438811   0.333332328
   0.434771121   0.101437961   0.666668450
   0.434773026   0.434771919   0.999999664
   0.434773003   0.434771531   0.333332881
   0.434772714   0.434771598   0.666667455
   0.434773487   0.768105892   0.000000957
   0.434769487   0.768108603   0.333332628
   0.434773784   0.768106562   0.666666400
   0.768073020   0.101457693   0.999999610
   0.768082917   0.101438788   0.333356179
   0.768083172   0.101438424   0.666644213
   0.768105318   0.434772417   0.000000531
   0.768104324   0.434771012   0.333332565
   0.768105995   0.434772671   0.666666903
   0.768038940   0.768038440   0.000000141
   0.768110915   0.768110562   0.333325615
   0.768108632   0.768108050   0.666674217
   0.231960630   0.231960885   0.000000705
   0.231890831   0.231891928   0.333325726
   0.231890876   0.231891055   0.666673528
   0.231892883   0.565224804   0.999997461
   0.231880073   0.565253055   0.333332641
   0.231892228   0.565224597   0.666669904
   0.231929699   0.898551443   0.000009901
   0.231714315   0.898362944   0.333358642
   0.231924720   0.898570726   0.666636627
   0.565227844   0.231894941   0.000000088
   0.565227196   0.231893886   0.333332567
   0.565227564   0.231894252   0.666667346
   0.565228198   0.565227527   0.999999846
   0.565228867   0.565227743   0.333332885
   0.565228512   0.565227829   0.666667269
   0.565227068   0.898559508   0.000000622
   0.565229180   0.898561318   0.333332338
   0.565228387   0.898561381   0.666667050
   0.898542743   0.231927163   0.999999754
   0.898561927   0.231917530   0.333356184
   0.898562143   0.231916955   0.666644074
   0.898559573   0.565226981   0.999999571
   0.898564232   0.565231047   0.333332446
   0.898561350   0.565228161   0.666668088
   0.898388537   0.898390397   0.999997610
   0.898561561   0.898521116   0.333404211
   0.898531324   0.898532074   0.666596585
   0.065217450   0.268136958   0.166691837
   0.065226794   0.268098420   0.500000515
   0.065217208   0.268137217   0.833307645
   0.065250314   0.601497093   0.166740083
   0.065250378   0.601496718   0.499928277
   0.065227392   0.601438051   0.833332097
   0.065369504   0.934559629   0.167053008
   0.065226779   0.934721598   0.499918222
   0.065352101   0.934649312   0.833037588
   0.398558841   0.268104084   0.166666308
   0.398561506   0.268105853   0.499999702
   0.398558702   0.268104023   0.833333988
   0.398555553   0.601443525   0.166672905
   0.398555894   0.601443174   0.499993660
   0.398562675   0.601439169   0.833333480
   0.398555747   0.934768523   0.166673967
   0.398556269   0.934768465   0.499994101
   0.398566772   0.934773370   0.833331852
   0.731899263   0.268100792   0.166665942
   0.731894998   0.268105056   0.499999955
   0.731899033   0.268101029   0.833334112
   0.731893607   0.601441432   0.166663799
   0.731891805   0.601438758   0.500002158
   0.731895351   0.601440649   0.833334021
   0.731862119   0.934782615   0.166692770
   0.731900482   0.934773393   0.499999475
   0.731862671   0.934782152   0.833307660
   0.268134134   0.065212841   0.166698285
   0.268095778   0.065222577   0.499994293
   0.268139072   0.065224120   0.833307588
   0.268103926   0.398557942   0.166666496
   0.268105721   0.398560589   0.499999514
   0.268103262   0.398558554   0.833333992
   0.268039780   0.731907079   0.166745178
   0.268041344   0.731907442   0.499922167
   0.268108565   0.731891433   0.833334412
   0.601440346   0.065228409   0.166668423
   0.601439815   0.065228487   0.499999710
   0.601440285   0.065228273   0.833331868
   0.601439023   0.398561025   0.166666634
   0.601438515   0.398561533   0.499999945
   0.601439264   0.398560786   0.833333421
   0.601440895   0.731896291   0.166665547
   0.601438233   0.731894508   0.500000440
   0.601441242   0.731896135   0.833334014
   0.934646489   0.065352554   0.166974801
   0.934789339   0.065209730   0.499994194
   0.934640928   0.065360634   0.833034547
   0.934771831   0.398557313   0.166665943
   0.934771747   0.398557847   0.500002191
   0.934771097   0.398559098   0.833331866
   0.934839728   0.731885418   0.166763902
   0.934830764   0.731923210   0.499927837
   0.934780488   0.731861772   0.833307377
H107LiMg53
   1.00000000
   13.503224458   0.000038959  -0.000000358
   0.000038959   13.503222458   0.000002712
  -0.000000240   0.000001814   9.029765953
  Li  Mg  H
  1  53  107
Direct configuration=     2
   0.999984537   0.999977554   0.999948041
   0.999830322   0.000301144   0.328406745
   0.999951550   0.999929852   0.671699353
   0.000007548   0.332987898   0.999975775
   0.999996595   0.333204734   0.333268082
   0.999981439   0.333185976   0.666756270
   0.999900366   0.666900909   0.999585998
   0.997732095   0.664516344   0.333279209
   0.999920846   0.666704908   0.667153398
   0.332906538   0.999910184   0.000053855
   0.333454733   0.000243641   0.333260300
   0.333105616   0.999885950   0.666686815
   0.333302195   0.333309131   0.000004722
   0.333288444   0.333264446   0.333285124
   0.333276874   0.333283674   0.666710186
   0.333167933   0.666703544   0.999940738
   0.333600588   0.666529697   0.333340267
   0.333246176   0.666630419   0.666715757
   0.667004957   0.999992800   0.000004253
   0.666784365   0.000032404   0.333268700
   0.666806004   0.000020127   0.666727425
   0.666755781   0.333247872   0.000001961
   0.666681195   0.333310120   0.333349416
   0.666687518   0.333316113   0.666648573
   0.666682835   0.666696730   0.999974653
   0.666726301   0.666736817   0.333287524
   0.666708784   0.666722909   0.666738150
   0.165116086   0.165124858   0.164530221
   0.166570349   0.166574342   0.500000478
   0.165106938   0.165103804   0.835468516
   0.166675908   0.499979605   0.166535594
   0.166703491   0.499964804   0.500097145
   0.166665512   0.500049012   0.833368699
   0.167115711   0.836834162   0.160970317
   0.168475590   0.835459244   0.505147294
   0.165137223   0.834998458   0.833828844
   0.500019828   0.166622023   0.166632960
   0.500015953   0.166647301   0.499998779
   0.500003755   0.166606223   0.833368290
   0.499969536   0.500028149   0.166666412
   0.499969728   0.500027967   0.500008542
   0.500005269   0.499998594   0.833325043
   0.500004089   0.833394565   0.166634775
   0.500006928   0.833369309   0.499997328
   0.499995563   0.833395977   0.833368163
   0.834959536   0.165039170   0.166164895
   0.833515552   0.166482777   0.500007390
   0.834937834   0.165066020   0.833829674
   0.833399012   0.500000724   0.166733505
   0.833376219   0.500006717   0.499897095
   0.833408868   0.500011282   0.833368118
   0.834861589   0.834950123   0.164443568
   0.833409874   0.833497939   0.500094182
   0.834931841   0.834946538   0.835462343
   0.103455734   0.103458981   0.000013214
   0.101828583   0.101751859   0.334165391
   0.101816025   0.101820946   0.665805405
   0.101504196   0.434830751   0.999998725
   0.101514895   0.434844870   0.333325304
   0.101485098   0.434819559   0.666675873
   0.101680772   0.767779672   0.000123836
   0.101457032   0.767857075   0.666298362
   0.434822376   0.101505780   0.999992562
   0.434832184   0.101507765   0.333325660
   0.434811443   0.101487202   0.666681783
   0.434837515   0.434824633   0.999996612
   0.434836819   0.434819954   0.333331167
   0.434833624   0.434820694   0.666672233
   0.434840812   0.768167528   0.000015015
   0.434799717   0.768206196   0.333329098
   0.434844090   0.768175793   0.666655765
   0.767784238   0.101730535   0.999996252
   0.767888946   0.101512049   0.333618131
   0.767891939   0.101507862   0.666385819
   0.768164492   0.434835358   0.000008018
   0.768159130   0.434823995   0.333328555
   0.768172989   0.434837702   0.666663365
   0.767371637   0.767362455   0.000002944
   0.768253650   0.768247844   0.333189401
   0.768227453   0.768217054   0.666807038
   0.232625836   0.232628894   0.000009414
   0.231769095   0.231781690   0.333190868
   0.231770078   0.231772202   0.666799286
   0.231815267   0.565133310   0.999969479
   0.231655260   0.565476310   0.333329431
   0.231807041   0.565131432   0.666701097
   0.232287907   0.898421364   0.000004516
   0.229688719   0.896113631   0.333653031
   0.232241603   0.898641307   0.666406628
   0.565169328   0.231840161   0.000000897
   0.565161069   0.231825926   0.333328548
   0.565166681   0.231831539   0.666670538
   0.565176349   0.565169017   0.999998613
   0.565184781   0.565172709   0.333331214
   0.565180241   0.565172837   0.666670181
   0.565168464   0.898482909   0.000008592
   0.565188815   0.898501291   0.333325845
   0.565179886   0.898502096   0.666665663
   0.898274653   0.232217676   0.999997785
   0.898497140   0.232116463   0.333618160
   0.898498868   0.232109223   0.666384385
   0.898485235   0.565168948   0.000000986
   0.898471387   0.565147047   0.333327074
   0.898503328   0.565178739   0.666673147
   0.896506291   0.896530138   0.999968997
   0.898520348   0.898026916   0.334160829
   0.898156386   0.898164486   0.665850526
   0.065052370   0.268535762   0.166961104
   0.065156584   0.268082587   0.500006140
   0.065049533   0.268538647   0.833032755
   0.065459288   0.602210990   0.167551890
   0.065457143   0.602208760   0.499128130
   0.065167576   0.601488844   0.833325265
   0.066775453   0.932333646   0.171290537
   0.065110201   0.934245831   0.499021956
   0.066587916   0.933433855   0.829822638
   0.398476326   0.268148310   0.166662423
   0.398504721   0.268169832   0.499996078
   0.398474895   0.268148509   0.833341486
   0.398428508   0.601559910   0.166734096
   0.398429251   0.601559031   0.499926679
   0.398520493   0.601501595   0.833339675
   0.398420887   0.934779025   0.166760143
   0.398425710   0.934781460   0.499916425
   0.398560507   0.934842842   0.833322636
   0.731934563   0.268065439   0.166656037
   0.731842006   0.268157970   0.499999689
   0.731931190   0.268069261   0.833344388
   0.731825876   0.601526319   0.166633838
   0.731804026   0.601497707   0.500023974
   0.731844954   0.601517061   0.833341930
   0.731451975   0.934949387   0.166973361
   0.731903338   0.934846651   0.499993035
   0.731459100   0.934943061   0.833032601
   0.268496598   0.064984118   0.167051059
   0.268046270   0.065093164   0.499918710
   0.268562277   0.065126780   0.833032327
   0.268147596   0.398465095   0.166664732
   0.268169605   0.398493107   0.499993750
   0.268138704   0.398472934   0.833341522
   0.267324939   0.732014603   0.167603942
   0.267386844   0.731975047   0.499067757
   0.268157499   0.731845937   0.833348736
   0.601518803   0.065178883   0.166681562
   0.601514039   0.065176989   0.499996215
   0.601518981   0.065177455   0.833322267
   0.601500295   0.398499618   0.166661586
   0.601497373   0.398502536   0.499999617
   0.601504318   0.398495976   0.833338803
   0.601520168   0.731855913   0.166652796
   0.601491729   0.731834240   0.500005430
   0.601523943   0.731854308   0.833341815
   0.933402291   0.066586171   0.170328809
   0.935069312   0.064918927   0.499932818
   0.933333046   0.066685648   0.829784779
   0.934823348   0.398454943   0.166653362
   0.934825195   0.398459773   0.500024412
   0.934814701   0.398474591   0.833322257
   0.935643578   0.731749680   0.167835935
   0.935545516   0.732194053   0.499122856
   0.934920280   0.731449262   0.833029515
H107LiMg53
   1.00000000
   13.503247230   0.000041691  -0.000000296
   0.000041691   13.503244746   0.000002888
  -0.000000198   0.000001931   9.029752037
  Li  Mg  H
  1  53  107
Direct configuration=     3
   0.999980206   0.999977044   0.999948205
   0.999826558   0.000302915   0.328495938
   0.999952177   0.999922376   0.671589623
   0.000010852   0.332994421   0.999974353
   0.999997134   0.333206499   0.333282225
   0.999980522   0.333187156   0.666743540
   0.999897361   0.666893652   0.999601926
   0.997660831   0.664442034   0.333293939
   0.999921475   0.666702311   0.667123072
   0.332929193   0.999927723   0.000058798
   0.333417426   0.000202574   0.333275295
   0.333123850   0.999900447   0.666667598
   0.333313789   0.333320257   0.000003975
   0.333278819   0.333253592   0.333285809
   0.333266001   0.333272264   0.666710245
   0.333146656   0.666718113   0.999963588
   0.333598202   0.666531292   0.333332241
   0.333231155   0.666639038   0.666701373
   0.666997582   0.999990225   0.000003511
   0.666782431   0.000035269   0.333282709
   0.666803741   0.000021833   0.666714130
   0.666768995   0.333234469   0.000001708
   0.666686962   0.333301845   0.333339575
   0.666694499   0.333308960   0.666658674
   0.666670629   0.666686093   0.999973316
   0.666736916   0.666749898   0.333288189
   0.666718946   0.666734624   0.666738797
   0.165111963   0.165124689   0.164601287
   0.166588815   0.166595872   0.500000131
   0.165102333   0.165103692   0.835397718
   0.166672589   0.499990777   0.166541117
   0.166700495   0.499973786   0.500090638
   0.166665628   0.500047719   0.833369633
   0.167249104   0.836844152   0.160922041
   0.168526601   0.835545150   0.505225963
   0.165174753   0.834929966   0.833791363
   0.500023194   0.166622673   0.166629423
   0.500017282   0.166648259   0.500001475
   0.500004624   0.166604406   0.833369127
   0.499969020   0.500028204   0.166666833
   0.499969269   0.500027959   0.500008094
   0.500006302   0.499997559   0.833325082
   0.500005586   0.833395298   0.166633726
   0.500010301   0.833369785   0.499997554
   0.499998994   0.833397168   0.833368978
   0.834910324   0.165087884   0.166200648
   0.833532813   0.166465014   0.500007002
   0.834886292   0.165117405   0.833794351
   0.833393106   0.499992105   0.166719589
   0.833370131   0.500000221   0.499910174
   0.833408705   0.500008394   0.833368921
   0.834875324   0.834952002   0.164521906
   0.833401500   0.833477102   0.500086793
   0.834933315   0.834952069   0.835391025
   0.103430615   0.103431353   0.000015654
   0.101825510   0.101744892   0.334160113
   0.101807634   0.101809779   0.665806347
   0.101500812   0.434829816   0.999999945
   0.101514713   0.434846756   0.333325946
   0.101484114   0.434822151   0.666674020
   0.101691264   0.767780072   0.000081723
   0.101471157   0.767849092   0.666321391
   0.434815706   0.101500178   0.999994211
   0.434836936   0.101512463   0.333326294
   0.434808396   0.101484057   0.666679502
   0.434837896   0.434825090   0.999997195
   0.434836126   0.434819751   0.333330761
   0.434833113   0.434820307   0.666672060
   0.434838569   0.768166238   0.000018554
   0.434802933   0.768211367   0.333329395
   0.434841809   0.768175008   0.666652045
   0.767783786   0.101738539   0.999997063
   0.767877076   0.101522897   0.333633088
   0.767879961   0.101518774   0.666370196
   0.768166401   0.434839607   0.000009509
   0.768166063   0.434832219   0.333328968
   0.768175492   0.434841497   0.666661424
   0.767360280   0.767348143   0.000004223
   0.768275904   0.768268177   0.333139184
   0.768250076   0.768236167   0.666855530
   0.232639421   0.232642501   0.000010569
   0.231749156   0.231761587   0.333140732
   0.231750555   0.231752627   0.666848273
   0.231813963   0.565129978   0.999968703
   0.231644353   0.565484585   0.333329943
   0.231805156   0.565128554   0.666701399
   0.232340394   0.898467833   0.999864805
   0.229646884   0.896041027   0.333674223
   0.232304546   0.898682443   0.666527474
   0.565166402   0.231839570   0.000000713
   0.565157686   0.231823824   0.333328943
   0.565164225   0.231830373   0.666670325
   0.565175537   0.565168719   0.999999065
   0.565185078   0.565174257   0.333330817
   0.565180281   0.565173462   0.666670129
   0.565172568   0.898486011   0.000009922
   0.565189290   0.898501979   0.333326547
   0.565180480   0.898502793   0.666663637
   0.898266716   0.232217918   0.999998455
   0.898487176   0.232128518   0.333633110
   0.898488043   0.232120884   0.666368902
   0.898489950   0.565174683   0.000007047
   0.898399085   0.565074812   0.333327798
   0.898505638   0.565180935   0.666666409
   0.896530580   0.896556103   0.999966652
   0.898536536   0.898024088   0.334157122
   0.898162992   0.898170402   0.665855777
   0.065053582   0.268538893   0.166964400
   0.065153208   0.268083753   0.500006242
   0.065050821   0.268541554   0.833029376
   0.065482233   0.602237728   0.167580678
   0.065477321   0.602237494   0.499096667
   0.065167755   0.601485296   0.833327778
   0.066716206   0.932322842   0.171423142
   0.065069120   0.934248877   0.499005272
   0.066549998   0.933477117   0.829755482
   0.398481174   0.268148949   0.166666113
   0.398506134   0.268170900   0.499995763
   0.398479932   0.268150004   0.833338116
   0.398423595   0.601564018   0.166731825
   0.398422234   0.601565225   0.499927583
   0.398523021   0.601499507   0.833340969
   0.398408209   0.934772809   0.166770255
   0.398411684   0.934778019   0.499903478
   0.398557809   0.934843828   0.833325355
   0.731969420   0.268029951   0.166657436
   0.731842799   0.268156538   0.499999893
   0.731965523   0.268034714   0.833342799
   0.731826305   0.601521111   0.166638171
   0.731804041   0.601495898   0.500023004
   0.731844186   0.601511589   0.833338567
   0.731447757   0.934948789   0.166977952
   0.731901271   0.934850764   0.499992171
   0.731455234   0.934941881   0.833028870
   0.268493122   0.064972374   0.167067193
   0.268041621   0.065076983   0.499905928
   0.268566911   0.065125515   0.833028989
   0.268149150   0.398469486   0.166668696
   0.268171741   0.398493891   0.499993166
   0.268139401   0.398477655   0.833338137
   0.267262566   0.732040639   0.167622957
   0.267359783   0.731964074   0.499048691
   0.268123470   0.731883305   0.833347800
   0.601518398   0.065178647   0.166679629
   0.601514750   0.065174169   0.499995956
   0.601519375   0.065177395   0.833324473
   0.601498347   0.398500933   0.166660237
   0.601497381   0.398501886   0.499999843
   0.601503565   0.398496505   0.833339924
   0.601514970   0.731855022   0.166655927
   0.601489908   0.731832977   0.500005723
   0.601518484   0.731853669   0.833338418
   0.933444018   0.066543901   0.170400608
   0.935103315   0.064884042   0.499932481
   0.933373763   0.066645469   0.829713948
   0.934823205   0.398456373   0.166652100
   0.934827679   0.398460064   0.500023472
   0.934814326   0.398474924   0.833324467
   0.935668844   0.731769468   0.167868410
   0.935576497   0.732215437   0.499091743
   0.934915532   0.731446055   0.833025950
H107LiMg53
   1.00000000
   13.503719971   0.000101437   0.000000926
   0.000101437   13.503708034   0.000006653
   0.000000619   0.000004449   9.029448282
  Li  Mg  H
  1  53  107
Direct configuration=     4
   0.999894168   0.999963049   0.999943116
   0.999728106   0.000380934   0.329379032
   0.999958500   0.999767875   0.670353746
   0.000070962   0.333054699   0.999945924
   0.000006537   0.333222153   0.333522929
   0.999960965   0.333189972   0.666531174
   0.999832469   0.666808030   0.999831341
   0.995958397   0.662699570   0.333544549
   0.999925494   0.666662346   0.666650166
   0.333296451   0.000258886   0.000150347
   0.332742196   0.999473972   0.333530412
   0.333449878   0.000172271   0.666334722
   0.333524909   0.333524098   0.999992038
   0.333092542   0.333040683   0.333283925
   0.333055394   0.333053044   0.666724054
   0.332716183   0.667000467   0.000366532
   0.333592057   0.666541270   0.333189035
   0.332931656   0.666797307   0.666447647
   0.666922540   0.999944285   0.999991842
   0.666762322   0.000093506   0.333521244
   0.666781571   0.000056959   0.666486914
   0.667034024   0.332965908   0.999998257
   0.666804330   0.333147276   0.333165232
   0.666829775   0.333170533   0.666836623
   0.666447262   0.666492855   0.999946180
   0.666944399   0.667004097   0.333286295
   0.666915851   0.666961474   0.666767419
   0.164781700   0.164867394   0.165505987
   0.166911999   0.166973935   0.499995195
   0.164761785   0.164839555   0.834496050
   0.166614201   0.500194137   0.166621482
   0.166652886   0.500136465   0.499986634
   0.166664650   0.500029645   0.833392513
   0.169735829   0.837658689   0.159083314
   0.169758177   0.837486451   0.507529945
   0.165562308   0.833982181   0.833182915
   0.500086900   0.166626294   0.166564726
   0.500044733   0.166662130   0.500044882
   0.500019533   0.166559815   0.833390313
   0.499952979   0.500035107   0.166679557
   0.499954299   0.500033665   0.500001889
   0.500024831   0.499979188   0.833318697
   0.500035202   0.833421622   0.166607734
   0.500072752   0.833386928   0.500002785
   0.500059134   0.833432578   0.833389744
   0.834312880   0.165675707   0.166776249
   0.833886409   0.166101675   0.500001026
   0.834244419   0.165756531   0.833225799
   0.833279997   0.499818989   0.166454698
   0.833249441   0.499865132   0.500153673
   0.833420381   0.499959969   0.833389443
   0.835385150   0.835257538   0.165545667
   0.833265331   0.833125498   0.499965762
   0.835223720   0.835318779   0.834480267
   0.103302161   0.103254696   0.000066956
   0.101834459   0.101666295   0.334227258
   0.101717109   0.101666640   0.665649040
   0.101450986   0.434828405   0.000027113
   0.101521980   0.434895973   0.333337993
   0.101472794   0.434880800   0.666634980
   0.101944064   0.767757508   0.999326623
   0.101757319   0.767675344   0.666671491
   0.434710950   0.101416935   0.000025754
   0.434915852   0.101591676   0.333338231
   0.434765923   0.101441008   0.666636006
   0.434860893   0.434847353   0.000008362
   0.434829379   0.434821063   0.333323366
   0.434829186   0.434816657   0.666668374
   0.434802801   0.768152105   0.000090220
   0.434861953   0.768322303   0.333331377
   0.434807431   0.768172128   0.666580327
   0.767727927   0.101933366   0.000012019
   0.767621171   0.101739863   0.333966636
   0.767621583   0.101735964   0.666024530
   0.768207977   0.434922631   0.000033983
   0.768284326   0.434972400   0.333333170
   0.768230271   0.434918123   0.666632078
   0.767056574   0.766985480   0.000033015
   0.768707566   0.768659105   0.332189927
   0.768685144   0.768601234   0.667767322
   0.232986739   0.232990186   0.000034684
   0.231366917   0.231378273   0.332193057
   0.231375174   0.231375814   0.667771651
   0.231777469   0.565056596   0.999951170
   0.231404214   0.565681004   0.333335719
   0.231755779   0.565061756   0.666713631
   0.233362542   0.899302137   0.997237137
   0.228548697   0.894322127   0.334130791
   0.233526226   0.899449621   0.668758855
   0.565105359   0.231819895   0.999996554
   0.565090016   0.231777879   0.333332731
   0.565109822   0.231797827   0.666670679
   0.565146637   0.565148495   0.000008157
   0.565186118   0.565199497   0.333323601
   0.565177401   0.565180692   0.666668358
   0.565234289   0.898527779   0.000037374
   0.565192040   0.898505632   0.333339777
   0.565182555   0.898505994   0.666623081
   0.898074126   0.232270009   0.000011005
   0.898289271   0.232388612   0.333966586
   0.898273677   0.232373403   0.666025554
   0.898563843   0.565269306   0.000125972
   0.897043765   0.563722245   0.333341353
   0.898540622   0.565215002   0.666534631
   0.896637827   0.896699821   0.999918921
   0.898823834   0.897882481   0.334255827
   0.898216283   0.898211609   0.665788030
   0.065045629   0.268666761   0.167075948
   0.065083050   0.268098979   0.500009720
   0.065044171   0.268665567   0.832914627
   0.065944543   0.602864181   0.168263246
   0.065891641   0.602895736   0.498369471
   0.065157711   0.601428079   0.833370235
   0.065930307   0.931644386   0.174618593
   0.064305073   0.934200345   0.498559413
   0.066123312   0.934006568   0.827938353
   0.398559381   0.268170123   0.166734737
   0.398515731   0.268198911   0.499990945
   0.398561793   0.268186764   0.833274376
   0.398296619   0.601673294   0.166699114
   0.398269827   0.601699694   0.499930161
   0.398543330   0.601490076   0.833370112
   0.398141773   0.934648191   0.166981760
   0.398126963   0.934703341   0.499643607
   0.398521461   0.934874316   0.833371667
   0.732595528   0.267391674   0.166683353
   0.731854693   0.268132310   0.500003601
   0.732581333   0.267415849   0.833313442
   0.731818779   0.601439286   0.166712224
   0.731789845   0.601481984   0.500012452
   0.731819022   0.601420938   0.833274954
   0.731301578   0.934965139   0.167116512
   0.731870875   0.934931763   0.499974542
   0.731312324   0.934949263   0.832907401
   0.268480721   0.064705473   0.167438589
   0.267932225   0.064752083   0.499649495
   0.268727350   0.065098497   0.832915339
   0.268184895   0.398540620   0.166745170
   0.268217311   0.398493147   0.499980618
   0.268160862   0.398551502   0.833274142
   0.266007954   0.732505232   0.168121111
   0.266729365   0.731777835   0.498557134
   0.267533162   0.732534954   0.833331241
   0.601523885   0.065166247   0.166646664
   0.601534833   0.065115573   0.499992285
   0.601539378   0.065168343   0.833361345
   0.601487428   0.398499584   0.166630038
   0.601509927   0.398476933   0.500003846
   0.601516278   0.398480542   0.833366056
   0.601430246   0.731828992   0.166713639
   0.601472810   0.731800965   0.500012654
   0.601429763   0.731832235   0.833274237
   0.933939756   0.066035933   0.172322323
   0.935761605   0.064206619   0.499913123
   0.933838878   0.066192752   0.827820667
   0.934831613   0.398463634   0.166625222
   0.934883023   0.398452386   0.500013637
   0.934814602   0.398466511   0.833361335
   0.936284307   0.732112518   0.168665195
   0.936276232   0.732663775   0.498371752
   0.934852712   0.731311725   0.832906891
H107LiMg53
   1.00000000
   13.503778589   0.000109749   0.000001200
   0.000109749   13.503765648   0.000007077
   0.000000803   0.000004733   9.029412469
  Li  Mg  H
  1  53  107
Direct configuration=     5
   0.999882665   0.999960984   0.999941932
   0.999719305   0.000384202   0.329447498
   0.999961455   0.999749310   0.670268827
   0.000073294   0.333051859   0.999945368
   0.000007182   0.333226699   0.333530756
   0.999959678   0.333194471   0.666523924
   0.999835273   0.666815904   0.999849533
   0.995785904   0.662521563   0.333549879
   0.999932111   0.666662569   0.666624525
   0.333342745   0.000309314   0.000148737
   0.332683275   0.999407391   0.333539137
   0.333504430   0.000219431   0.666328873
   0.333543097   0.333542136   0.999992400
   0.333075785   0.333021752   0.333275984
   0.333037264   0.333034596   0.666731628
   0.332668167   0.667031668   0.000388157
   0.333586439   0.666545076   0.333182494
   0.332897751   0.666815530   0.666431595
   0.666926602   0.999943840   0.999992433
   0.666757951   0.000098446   0.333529042
   0.666777717   0.000060349   0.666478524
   0.667063201   0.332935376   0.999998911
   0.666823424   0.333136684   0.333157035
   0.666844010   0.333154983   0.666844197
   0.666429602   0.666476474   0.999945625
   0.666963518   0.667026424   0.333278318
   0.666934751   0.666981715   0.666775824
   0.164740977   0.164830957   0.165498516
   0.166934831   0.166998404   0.499996108