Mg28Ni4O32
   1.00000000
   8.440365057   0.000000000   0.000000000
   0.000000000   8.440343252  -0.000000000
   0.000000000  -0.000000000   8.440344445
  Ni  Mg  O
  4  28  32
Direct configuration=     1
   0.000000000   0.000000000   0.000000000
   0.000000000   0.000000000   0.500000000
   0.000000000   0.249905503   0.250000000
   0.000000000   0.750094497   0.750000000
   0.000000000   0.500000000   0.000000000
   0.000000000   0.500000000   0.500000000
   0.500000000   0.000000000   0.000000000
   0.500000000   0.000000000   0.500000000
   0.500000000   0.500000000   0.000000000
   0.500000000   0.500000000   0.500000000
   0.000000000   0.249840884   0.750000000
   0.000000000   0.750159116   0.250000000
   0.500000000   0.250027337   0.250000000
   0.500000000   0.250068022   0.750000000
   0.500000000   0.749931978   0.250000000
   0.500000000   0.749972663   0.750000000
   0.249730507   0.000092594   0.250000000
   0.249730507   0.999907406   0.750000000
   0.249939691   0.499936487   0.250000000
   0.249939691   0.500063513   0.750000000
   0.750269493   0.000092594   0.250000000
   0.750269493   0.999907406   0.750000000
   0.750060309   0.499936487   0.250000000
   0.750060309   0.500063513   0.750000000
   0.249839410   0.249947286   0.000085839
   0.249839410   0.249947286   0.499914161
   0.249839410   0.750052714   0.999914161
   0.249839410   0.750052714   0.500085839
   0.750160590   0.249947286   0.000085839
   0.750160590   0.249947286   0.499914161
   0.750160590   0.750052714   0.999914161
   0.750160590   0.750052714   0.500085839
   0.250037481   0.249912110   0.250000000
   0.249903399   0.249981331   0.750000000
   0.249903399   0.750018669   0.250000000
   0.250037481   0.750087890   0.750000000
   0.749962519   0.249912110   0.250000000
   0.750096601   0.249981331   0.750000000
   0.750096601   0.750018669   0.250000000
   0.749962519   0.750087890   0.750000000
   0.250051481   0.000000000   0.000000000
   0.250051481   0.000000000   0.500000000
   0.249926413   0.500000000   0.000000000
   0.249926413   0.500000000   0.500000000
   0.749948519   0.000000000   0.000000000
   0.749948519   0.000000000   0.500000000
   0.750073587   0.500000000   0.000000000
   0.750073587   0.500000000   0.500000000
   0.000000000   0.249966750   0.999872445
   0.000000000   0.249966750   0.500127555
   0.000000000   0.750033250   0.000127555
   0.000000000   0.750033250   0.499872445
   0.500000000   0.249896505   0.000076348
   0.500000000   0.249896505   0.499923652
   0.500000000   0.750103495   0.999923652
   0.500000000   0.750103495   0.500076348
   0.000000000   0.999938602   0.250000000
   0.000000000   0.000061398   0.750000000
   0.000000000   0.500165708   0.250000000
   0.000000000   0.499834292   0.750000000
   0.500000000   0.000077672   0.250000000
   0.500000000   0.999922328   0.750000000
   0.500000000   0.499926397   0.250000000
   0.500000000   0.500073603   0.750000000
Mg28Ni4O32
   1.00000000
   8.443022685   0.000000000  -0.000000000
   0.000000000   8.442844366   0.000000000
  -0.000000000   0.000000000   8.442855184
  Ni  Mg  O
  4  28  32
Direct configuration=     2
   0.000000000   0.000000000   0.000000000
   0.000000000   0.000000000   0.500000000
   0.000000000   0.249349321   0.250000000
   0.000000000   0.750650679   0.750000000
   0.000000000   0.500000000   0.000000000
   0.000000000   0.500000000   0.500000000
   0.500000000   0.000000000   0.000000000
   0.500000000   0.000000000   0.500000000
   0.500000000   0.500000000   0.000000000
   0.500000000   0.500000000   0.500000000
   0.000000000   0.248861566   0.750000000
   0.000000000   0.751138434   0.250000000
   0.500000000   0.250094805   0.250000000
   0.500000000   0.250397670   0.750000000
   0.500000000   0.749602330   0.250000000
   0.500000000   0.749905195   0.750000000
   0.248080931   0.000637490   0.250000000
   0.248080931   0.999362510   0.750000000
   0.249498699   0.499583907   0.250000000
   0.249498699   0.500416093   0.750000000
   0.751919069   0.000637490   0.250000000
   0.751919069   0.999362510   0.750000000
   0.750501301   0.499583907   0.250000000
   0.750501301   0.500416093   0.750000000
   0.248826526   0.249578588   0.000587234
   0.248826526   0.249578588   0.499412766
   0.248826526   0.750421412   0.999412766
   0.248826526   0.750421412   0.500587234
   0.751173474   0.249578588   0.000587234
   0.751173474   0.249578588   0.499412766
   0.751173474   0.750421412   0.999412766
   0.751173474   0.750421412   0.500587234
   0.250144941   0.249363779   0.250000000
   0.249288476   0.249853014   0.750000000
   0.249288476   0.750146986   0.250000000
   0.250144941   0.750636221   0.750000000
   0.749855059   0.249363779   0.250000000
   0.750711524   0.249853014   0.750000000
   0.750711524   0.750146986   0.250000000
   0.749855059   0.750636221   0.750000000
   0.250260515   0.000000000   0.000000000
   0.250260515   0.000000000   0.500000000
   0.249443848   0.500000000   0.000000000
   0.249443848   0.500000000   0.500000000
   0.749739485   0.000000000   0.000000000
   0.749739485   0.000000000   0.500000000
   0.750556152   0.500000000   0.000000000
   0.750556152   0.500000000   0.500000000
   0.000000000   0.249702198   0.999134485
   0.000000000   0.249702198   0.500865515
   0.000000000   0.750297802   0.000865515
   0.000000000   0.750297802   0.499134485
   0.500000000   0.249308294   0.000543288
   0.500000000   0.249308294   0.499456712
   0.500000000   0.750691706   0.999456712
   0.500000000   0.750691706   0.500543288
   0.000000000   0.999625834   0.250000000
   0.000000000   0.000374166   0.750000000
   0.000000000   0.501125717   0.250000000
   0.000000000   0.498874283   0.750000000
   0.500000000   0.000540731   0.250000000
   0.500000000   0.999459269   0.750000000
   0.500000000   0.499466494   0.250000000
   0.500000000   0.500533506   0.750000000
Mg28Ni4O32
   1.00000000
   8.443774299   0.000000000  -0.000000000
   0.000000000   8.443552979   0.000000000
  -0.000000000   0.000000000   8.443566936
  Ni  Mg  O
  4  28  32
Direct configuration=     3
   0.000000000   0.000000000   0.000000000
   0.000000000   0.000000000   0.500000000
   0.000000000   0.249302641   0.250000000
   0.000000000   0.750697359   0.750000000
   0.000000000   0.500000000   0.000000000
   0.000000000   0.500000000   0.500000000
   0.500000000   0.000000000   0.000000000
   0.500000000   0.000000000   0.500000000
   0.500000000   0.500000000   0.000000000
   0.500000000   0.500000000   0.500000000
   0.000000000   0.248746817   0.750000000
   0.000000000   0.751253183   0.250000000
   0.500000000   0.250016134   0.250000000
   0.500000000   0.250361613   0.750000000
   0.500000000   0.749638387   0.250000000
   0.500000000   0.749983866   0.750000000
   0.247889392   0.000678532   0.250000000
   0.247889392   0.999321468   0.750000000
   0.249385856   0.499575301   0.250000000
   0.249385856   0.500424699   0.750000000
   0.752110608   0.000678532   0.250000000
   0.752110608   0.999321468   0.750000000
   0.750614144   0.499575301   0.250000000
   0.750614144   0.500424699   0.750000000
   0.248683277   0.249496508   0.000623205
   0.248683277   0.249496508   0.499376795
   0.248683277   0.750503492   0.999376795
   0.248683277   0.750503492   0.500623205
   0.751316723   0.249496508   0.000623205
   0.751316723   0.249496508   0.499376795
   0.751316723   0.750503492   0.999376795
   0.751316723   0.750503492   0.500623205
   0.250044446   0.249292253   0.250000000
   0.249196331   0.249821258   0.750000000
   0.249196331   0.750178742   0.250000000
   0.250044446   0.750707747   0.750000000
   0.749955554   0.249292253   0.250000000
   0.750803669   0.249821258   0.750000000
   0.750803669   0.750178742   0.250000000
   0.749955554   0.750707747   0.750000000
   0.250190089   0.000000000   0.000000000
   0.250190089   0.000000000   0.500000000
   0.249354571   0.500000000   0.000000000
   0.249354571   0.500000000   0.500000000
   0.749809911   0.000000000   0.000000000
   0.749809911   0.000000000   0.500000000
   0.750645429   0.500000000   0.000000000
   0.750645429   0.500000000   0.500000000
   0.000000000   0.249616498   0.999087062
   0.000000000   0.249616498   0.500912938
   0.000000000   0.750383502   0.000912938
   0.000000000   0.750383502   0.499087062
   0.500000000   0.249277310   0.000594334
   0.500000000   0.249277310   0.499405666
   0.500000000   0.750722690   0.999405666
   0.500000000   0.750722690   0.500594334
   0.000000000   0.999649332   0.250000000
   0.000000000   0.000350668   0.750000000
   0.000000000   0.501191358   0.250000000
   0.000000000   0.498808642   0.750000000
   0.500000000   0.000580158   0.250000000
   0.500000000   0.999419842   0.750000000
   0.500000000   0.499407170   0.250000000
   0.500000000   0.500592830   0.750000000
Mg28Ni4O32
   1.00000000
   8.450342954   0.000000000  -0.000000000
   0.000000000   8.449747387   0.000000000
  -0.000000000   0.000000000   8.449790139
  Ni  Mg  O
  4  28  32
Direct configuration=     4
   0.000000000   0.000000000   0.000000000
   0.000000000   0.000000000   0.500000000
   0.000000000   0.249139931   0.250000000
   0.000000000   0.750860069   0.750000000
   0.000000000   0.500000000   0.000000000
   0.000000000   0.500000000   0.500000000
   0.500000000   0.000000000   0.000000000
   0.500000000   0.000000000   0.500000000
   0.500000000   0.500000000   0.000000000
   0.500000000   0.500000000   0.500000000
   0.000000000   0.248128363   0.750000000
   0.000000000   0.751871637   0.250000000
   0.500000000   0.249207146   0.250000000
   0.500000000   0.249834366   0.750000000
   0.500000000   0.750165634   0.250000000
   0.500000000   0.750792854   0.750000000
   0.246858745   0.000787349   0.250000000
   0.246858745   0.999212651   0.750000000
   0.248505781   0.499682291   0.250000000
   0.248505781   0.500317709   0.750000000
   0.753141255   0.000787349   0.250000000
   0.753141255   0.999212651   0.750000000
   0.751494219   0.499682291   0.250000000
   0.751494219   0.500317709   0.750000000
   0.247797861   0.248882264   0.000709176
   0.247797861   0.248882264   0.499290824
   0.247797861   0.751117736   0.999290824
   0.247797861   0.751117736   0.500709176
   0.752202139   0.248882264   0.000709176
   0.752202139   0.248882264   0.499290824
   0.752202139   0.751117736   0.999290824
   0.752202139   0.751117736   0.500709176
   0.248953882   0.248868526   0.250000000
   0.248601351   0.249548107   0.750000000
   0.248601351   0.750451893   0.250000000
   0.248953882   0.751131474   0.750000000
   0.751046118   0.248868526   0.250000000
   0.751398649   0.249548107   0.750000000
   0.751398649   0.750451893   0.250000000
   0.751046118   0.751131474   0.750000000
   0.249372974   0.000000000   0.000000000
   0.249372974   0.000000000   0.500000000
   0.248691514   0.500000000   0.000000000
   0.248691514   0.500000000   0.500000000
   0.750627026   0.000000000   0.000000000
   0.750627026   0.000000000   0.500000000
   0.751308486   0.500000000   0.000000000
   0.751308486   0.500000000   0.500000000
   0.000000000   0.248898605   0.999004457
   0.000000000   0.248898605   0.500995543
   0.000000000   0.751101395   0.000995543
   0.000000000   0.751101395   0.499004457
   0.500000000   0.249259738   0.000843637
   0.500000000   0.249259738   0.499156363
   0.500000000   0.750740262   0.999156363
   0.500000000   0.750740262   0.500843637
   0.000000000   0.000058882   0.250000000
   0.000000000   0.999941118   0.750000000
   0.000000000   0.501335837   0.250000000
   0.000000000   0.498664163   0.750000000
   0.500000000   0.000710135   0.250000000
   0.500000000   0.999289865   0.750000000
   0.500000000   0.499069223   0.250000000
   0.500000000   0.500930777   0.750000000
Mg28Ni4O32
   1.00000000
   8.453987802   0.000000000  -0.000000000
   0.000000000   8.453182896  -0.000000000
  -0.000000000  -0.000000000   8.453242390
  Ni  Mg  O
  4  28  32
Direct configuration=     5
   0.000000000   0.000000000   0.000000000
   0.000000000   0.000000000   0.500000000
   0.000000000   0.249202926   0.250000000
   0.000000000   0.750797074   0.750000000
   0.000000000   0.500000000   0.000000000
   0.000000000   0.500000000   0.500000000
   0.500000000   0.000000000   0.000000000
   0.500000000   0.000000000   0.500000000
   0.500000000   0.500000000   0.000000000
   0.500000000   0.500000000   0.500000000
   0.000000000   0.248049115   0.750000000
   0.000000000   0.751950885   0.250000000
   0.500000000   0.248790042   0.250000000
   0.500000000   0.249490857   0.750000000
   0.500000000   0.750509143   0.250000000
   0.500000000   0.751209958   0.750000000
   0.246725293   0.000696253   0.250000000
   0.246725293   0.999303747   0.750000000
   0.248171182   0.499832201   0.250000000
   0.248171182   0.500167799   0.750000000
   0.753274707   0.000696253   0.250000000
   0.753274707   0.999303747   0.750000000
   0.751828818   0.499832201   0.250000000
   0.751828818   0.500167799   0.750000000
   0.247588925   0.248665293   0.000623425
   0.247588925   0.248665293   0.499376575
   0.247588925   0.751334707   0.999376575
   0.247588925   0.751334707   0.500623425
   0.752411075   0.248665293   0.000623425
   0.752411075   0.248665293   0.499376575
   0.752411075   0.751334707   0.999376575
   0.752411075   0.751334707   0.500623425
   0.248315679   0.248778373   0.250000000
   0.248436311   0.249399085   0.750000000
   0.248436311   0.750600915   0.250000000
   0.248315679   0.751221627   0.750000000
   0.751684321   0.248778373   0.250000000
   0.751563689   0.249399085   0.750000000
   0.751563689   0.750600915   0.250000000
   0.751684321   0.751221627   0.750000000
   0.248895210   0.000000000   0.000000000
   0.248895210   0.000000000   0.500000000
   0.248419172   0.500000000   0.000000000
   0.248419172   0.500000000   0.500000000
   0.751104790   0.000000000   0.000000000
   0.751104790   0.000000000   0.500000000
   0.751580828   0.500000000   0.000000000
   0.751580828   0.500000000   0.500000000
   0.000000000   0.248585171   0.999133272
   0.000000000   0.248585171   0.500866728
   0.000000000   0.751414829   0.000866728
   0.000000000   0.751414829   0.499133272
   0.500000000   0.249358544   0.000843655
   0.500000000   0.249358544   0.499156345
   0.500000000   0.750641456   0.999156345
   0.500000000   0.750641456   0.500843655
   0.000000000   0.000357205   0.250000000
   0.000000000   0.999642795   0.750000000
   0.000000000   0.501180642   0.250000000
   0.000000000   0.498819358   0.750000000
   0.500000000   0.000639703   0.250000000
   0.500000000   0.999360297   0.750000000
   0.500000000   0.499018200   0.250000000
   0.500000000   0.500981800   0.750000000
Mg28Ni4O32
   1.00000000
   8.458575370   0.000000000  -0.000000000
   0.000000000   8.457501672  -0.000000000
  -0.000000000  -0.000000000   8.457582648
  Ni  Mg  O
  4  28  32
Direct configuration=     6
   0.000000000   0.000000000   0.000000000
   0.000000000   0.000000000   0.500000000
   0.000000000   0.249375574   0.250000000
   0.000000000   0.750624426   0.750000000
   0.000000000   0.500000000   0.000000000
   0.000000000   0.500000000   0.500000000
   0.500000000   0.000000000   0.000000000
   0.500000000   0.000000000   0.500000000
   0.500000000   0.500000000   0.000000000
   0.500000000   0.500000000   0.500000000
   0.000000000   0.248150263   0.750000000
   0.000000000   0.751849737   0.250000000
   0.500000000   0.248453684   0.250000000
   0.500000000   0.249155243   0.750000000
   0.500000000   0.750844757   0.250000000
   0.500000000   0.751546316   0.750000000
   0.246889975   0.000499665   0.250000000
   0.246889975   0.999500335   0.750000000
   0.247982938   0.500038008   0.250000000
   0.247982938   0.499961992   0.750000000
   0.753110025   0.000499665   0.250000000
   0.753110025   0.999500335   0.750000000
   0.752017062   0.500038008   0.250000000
   0.752017062   0.499961992   0.750000000
   0.247586771   0.248562803   0.000449558
   0.247586771   0.248562803   0.499550442
   0.247586771   0.751437197   0.999550442
   0.247586771   0.751437197   0.500449558
   0.752413229   0.248562803   0.000449558
   0.752413229   0.248562803   0.499550442
   0.752413229   0.751437197   0.999550442
   0.752413229   0.751437197   0.500449558
   0.247667797   0.248789662   0.250000000
   0.248389036   0.249223382   0.750000000
   0.248389036   0.750776618   0.250000000
   0.247667797   0.751210338   0.750000000
   0.752332203   0.248789662   0.250000000
   0.751610964   0.249223382   0.750000000
   0.751610964   0.750776618   0.250000000
   0.752332203   0.751210338   0.750000000
   0.248446347   0.000000000   0.000000000
   0.248446347   0.000000000   0.500000000
   0.248185992   0.500000000   0.000000000
   0.248185992   0.500000000   0.500000000
   0.751553653   0.000000000   0.000000000
   0.751553653   0.000000000   0.500000000
   0.751814008   0.500000000   0.000000000
   0.751814008   0.500000000   0.500000000
   0.000000000   0.248352561   0.999349650
   0.000000000   0.248352561   0.500650350
   0.000000000   0.751647439   0.000650350
   0.000000000   0.751647439   0.499349650
   0.500000000   0.249480176   0.000737981
   0.500000000   0.249480176   0.499262019
   0.500000000   0.750519824   0.999262019
   0.500000000   0.750519824   0.500737981
   0.000000000   0.000681506   0.250000000
   0.000000000   0.999318494   0.750000000
   0.000000000   0.500894030   0.250000000
   0.000000000   0.499105970   0.750000000
   0.500000000   0.000458027   0.250000000
   0.500000000   0.999541973   0.750000000
   0.500000000   0.499075025   0.250000000
   0.500000000   0.500924975   0.750000000
Mg28Ni4O32
   1.00000000
   8.464341406   0.000000000  -0.000000000
   0.000000000   8.462921912  -0.000000000
  -0.000000000  -0.000000000   8.463030042
  Ni  Mg  O
  4  28  32
Direct configuration=     7
   0.000000000   0.000000000   0.000000000
   0.000000000   0.000000000   0.500000000
   0.000000000   0.249587883   0.250000000
   0.000000000   0.750412117   0.750000000
   0.000000000   0.500000000   0.000000000
   0.000000000   0.500000000   0.500000000
   0.500000000   0.000000000   0.000000000
   0.500000000   0.000000000   0.500000000
   0.500000000   0.500000000   0.000000000
   0.500000000   0.500000000   0.500000000
   0.000000000   0.248348586   0.750000000
   0.000000000   0.751651414   0.250000000
   0.500000000   0.248327431   0.250000000
   0.500000000   0.248958453   0.750000000
   0.500000000   0.751041547   0.250000000
   0.500000000   0.751672569   0.750000000
   0.247215913   0.000277741   0.250000000
   0.247215913   0.999722259   0.750000000
   0.247990517   0.500225500   0.250000000
   0.247990517   0.499774500   0.750000000
   0.752784087   0.000277741   0.250000000
   0.752784087   0.999722259   0.750000000
   0.752009483   0.500225500   0.250000000
   0.752009483   0.499774500   0.750000000
   0.247741882   0.248600916   0.000261996
   0.247741882   0.248600916   0.499738004
   0.247741882   0.751399084   0.999738004
   0.247741882   0.751399084   0.500261996
   0.752258118   0.248600916   0.000261996
   0.752258118   0.248600916   0.499738004
   0.752258118   0.751399084   0.999738004
   0.752258118   0.751399084   0.500261996
   0.247189531   0.248874980   0.250000000
   0.248442001   0.249036491   0.750000000
   0.248442001   0.750963509   0.250000000
   0.247189531   0.751125020   0.750000000
   0.752810469   0.248874980   0.250000000
   0.751557999   0.249036491   0.750000000
   0.751557999   0.750963509   0.250000000
   0.752810469   0.751125020   0.750000000
   0.248186459   0.000000000   0.000000000
   0.248186459   0.000000000   0.500000000
   0.248005651   0.500000000   0.000000000
   0.248005651   0.500000000   0.500000000
   0.751813541   0.000000000   0.000000000
   0.751813541   0.000000000   0.500000000
   0.751994349   0.500000000   0.000000000
   0.751994349   0.500000000   0.500000000
   0.000000000   0.248261376   0.999527059
   0.000000000   0.248261376   0.500472941
   0.000000000   0.751738624   0.000472941
   0.000000000   0.751738624   0.499527059
   0.500000000   0.249524451   0.000573923
   0.500000000   0.249524451   0.499426077
   0.500000000   0.750475549   0.999426077
   0.500000000   0.750475549   0.500573923
   0.000000000   0.000916092   0.250000000
   0.000000000   0.999083908   0.750000000
   0.000000000   0.500631070   0.250000000
   0.000000000   0.499368930   0.750000000
   0.500000000   0.000231962   0.250000000
   0.500000000   0.999768038   0.750000000
   0.500000000   0.499211294   0.250000000
   0.500000000   0.500788706   0.750000000
Mg28Ni4O32
   1.00000000
   8.475298475   0.000000000  -0.000000000
   0.000000000   8.473210108  -0.000000000
  -0.000000000  -0.000000000   8.473369943
  Ni  Mg  O
  4  28  32
Direct configuration=     8
   0.000000000   0.000000000   0.000000000
   0.000000000   0.000000000   0.500000000
   0.000000000   0.249884595   0.250000000
   1.000000000   0.750115405   0.750000000
   0.000000000   0.500000000   0.000000000
   0.000000000   0.500000000   0.500000000
   0.500000000   0.000000000   0.000000000
   0.500000000   0.000000000   0.500000000
   0.500000000   0.500000000   0.000000000
   0.500000000   0.500000000   0.500000000
   0.000000000   0.248667045   0.750000000
   0.000000000   0.751332955   0.250000000
   0.500000000   0.248462471   0.250000000
   0.500000000   0.248913622   0.750000000
   0.500000000   0.751086378   0.250000000
   0.500000000   0.751537529   0.750000000
   0.247746164   0.999994603   0.250000000
   0.247746164   0.000005397   0.750000000
   0.248238507   0.500423880   0.250000000
   0.248238507   0.499576120   0.750000000
   0.752253836   0.999994603   0.250000000
   0.752253836   0.000005397   0.750000000
   0.751761493   0.500423880   0.250000000
   0.751761493   0.499576120   0.750000000
   0.248085786   0.248821923   0.000034466
   0.248085786   0.248821923   0.499965534
   0.248085786   0.751178077   0.999965534
   0.248085786   0.751178077   0.500034466
   0.751914214   0.248821923   0.000034466
   0.751914214   0.248821923   0.499965534
   0.751914214   0.751178077   0.999965534
   0.751914214   0.751178077   0.500034466
   0.246810982   0.249062745   0.250000000
   0.248612026   0.248762856   0.750000000
   0.248612026   0.751237144   0.250000000
   0.246810982   0.750937255   0.750000000
   0.753189018   0.249062745   0.250000000
   0.751387974   0.248762856   0.750000000
   0.751387974   0.751237144   0.250000000
   0.753189018   0.750937255   0.750000000
   0.248134274   0.000000000   0.000000000
   0.248134274   0.000000000   0.500000000
   0.247810315   0.500000000   0.000000000
   0.247810315   0.500000000   0.500000000
   0.751865726   0.000000000   0.000000000
   0.751865726   0.000000000   0.500000000
   0.752189685   0.500000000   0.000000000
   0.752189685   0.500000000   0.500000000
   0.000000000   0.248322812   0.999631640
   0.000000000   0.248322812   0.500368360
   0.000000000   0.751677188   0.000368360
   0.000000000   0.751677188   0.499631640
   0.500000000   0.249430139   0.000316792
   0.500000000   0.249430139   0.499683208
   0.500000000   0.750569861   0.999683208
   0.500000000   0.750569861   0.500316792
   0.000000000   0.001074527   0.250000000
   0.000000000   0.998925473   0.750000000
   0.000000000   0.500409614   0.250000000
   0.000000000   0.499590386   0.750000000
   0.500000000   0.999918267   0.250000000
   0.500000000   0.000081733   0.750000000
   0.500000000   0.499471605   0.250000000
   0.500000000   0.500528395   0.750000000
Mg28Ni4O32
   1.00000000
   8.488790960   0.000000000  -0.000000000
   0.000000000   8.485863517  -0.000000000
  -0.000000000  -0.000000000   8.486087336
  Ni  Mg  O
  4  28  32
Direct configuration=     9
   0.000000000   0.000000000   0.000000000
   0.000000000   0.000000000   0.500000000
   0.000000000   0.250078808   0.250000000
   1.000000000   0.749921192   0.750000000
   0.000000000   0.500000000   0.000000000
   0.000000000   0.500000000   0.500000000
   0.500000000   0.000000000   0.000000000
   0.500000000   0.000000000   0.500000000
   0.500000000   0.500000000   0.000000000
   0.500000000   0.500000000   0.500000000
   0.000000000   0.248914857   0.750000000
   0.000000000   0.751085143   0.250000000
   0.500000000   0.248971157   0.250000000
   0.500000000   0.249184312   0.750000000
   0.500000000   0.750815688   0.250000000
   0.500000000   0.751028843   0.750000000
   0.248181526   0.999857658   0.250000000
   0.248181526   0.000142342   0.750000000
   0.248709352   0.500470143   0.250000000
   0.248709352   0.499529857   0.750000000
   0.751818474   0.999857658   0.250000000
   0.751818474   0.000142342   0.750000000
   0.751290648   0.500470143   0.250000000
   0.751290648   0.499529857   0.750000000
   0.248467449   0.249189235   0.999938467
   0.248467449   0.249189235   0.500061533
   0.248467449   0.750810765   0.000061533
   0.248467449   0.750810765   0.499938467
   0.751532551   0.249189235   0.999938467
   0.751532551   0.249189235   0.500061533
   0.751532551   0.750810765   0.000061533
   0.751532551   0.750810765   0.499938467
   0.246965138   0.249294129   0.250000000
   0.248858318   0.248569121   0.750000000
   0.248858318   0.751430879   0.250000000
   0.246965138   0.750705871   0.750000000
   0.753034862   0.249294129   0.250000000
   0.751141682   0.248569121   0.750000000
   0.751141682   0.751430879   0.250000000
   0.753034862   0.750705871   0.750000000
   0.248530838   0.000000000   0.000000000
   0.248530838   0.000000000   0.500000000
   0.247769359   0.500000000   0.000000000
   0.247769359   0.500000000   0.500000000
   0.751469162   0.000000000   0.000000000
   0.751469162   0.000000000   0.500000000
   0.752230641   0.500000000   0.000000000
   0.752230641   0.500000000   0.500000000
   0.000000000   0.248618188   0.999478121
   0.000000000   0.248618188   0.500521879
   0.000000000   0.751381812   0.000521879
   0.000000000   0.751381812   0.499478121
   0.500000000   0.249161203   0.000125734
   0.500000000   0.249161203   0.499874266
   0.500000000   0.750838797   0.999874266
   0.500000000   0.750838797   0.500125734
   0.000000000   0.000948963   0.250000000
   0.000000000   0.999051037   0.750000000
   1.000000000   0.500493765   0.250000000
   1.000000000   0.499506235   0.750000000
   0.500000000   0.999739360   0.250000000
   0.500000000   0.000260640   0.750000000
   0.500000000   0.499736618   0.250000000
   0.500000000   0.500263382   0.750000000
Mg28Ni4O32
   1.00000000
   8.498812564   0.000000000  -0.000000000
   0.000000000   8.495242047  -0.000000000
  -0.000000000  -0.000000000   8.495514053
  Ni  Mg  O
  4  28  32
Direct configuration=     10
   0.000000000   0.000000000   0.000000000
   0.000000000   0.000000000   0.500000000
   0.000000000   0.250038793   0.250000000
   1.000000000   0.749961207   0.750000000
   1.000000000   0.500000000   0.000000000
   0.000000000   0.500000000   0.500000000
   0.500000000   0.000000000   0.000000000
   0.500000000   0.000000000   0.500000000
   0.500000000   0.500000000   0.000000000
   0.500000000   0.500000000   0.500000000
   0.000000000   0.248935102   0.750000000
   0.000000000   0.751064898   0.250000000
   0.500000000   0.249593720   0.250000000
   0.500000000   0.249630678   0.750000000
   0.500000000   0.750369322   0.250000000
   0.500000000   0.750406280   0.750000000
   0.248275513   0.999988233   0.250000000
   0.248275513   0.000011767   0.750000000
   0.249144732   0.500312762   0.250000000
   0.249144732   0.499687238   0.750000000
   0.751724487   0.999988233   0.250000000
   0.751724487   0.000011767   0.750000000
   0.750855268   0.500312762   0.250000000
   0.750855268   0.499687238   0.750000000
   0.248673506   0.249500136   0.000056598
   0.248673506   0.249500136   0.499943402
   0.248673506   0.750499864   0.999943402
   0.248673506   0.750499864   0.500056598
   0.751326494   0.249500136   0.000056598
   0.751326494   0.249500136   0.499943402
   0.751326494   0.750499864   0.999943402
   0.751326494   0.750499864   0.500056598
   0.247700370   0.249468476   0.250000000
   0.249072438   0.248630792   0.750000000
   0.249072438   0.751369208   0.250000000
   0.247700370   0.750531524   0.750000000
   0.752299630   0.249468476   0.250000000
   0.750927562   0.248630792   0.750000000
   0.750927562   0.751369208   0.250000000
   0.752299630   0.750531524   0.750000000
   0.249216401   0.000000000   0.000000000
   0.249216401   0.000000000   0.500000000
   0.248003506   0.500000000   0.000000000
   0.248003506   0.500000000   0.500000000
   0.750783599   0.000000000   0.000000000
   0.750783599   0.000000000   0.500000000
   0.751996494   0.500000000   0.000000000
   0.751996494   0.500000000   0.500000000
   0.000000000   0.249018703   0.999122223
   0.000000000   0.249018703   0.500877777
   0.000000000   0.750981297   0.000877777
   0.000000000   0.750981297   0.499122223
   0.500000000   0.248906005   0.000146333
   0.500000000   0.248906005   0.499853667
   0.500000000   0.751093995   0.999853667
   0.500000000   0.751093995   0.500146333
   0.000000000   0.000569684   0.250000000
   1.000000000   0.999430316   0.750000000
   1.000000000   0.500880237   0.250000000
   1.000000000   0.499119763   0.750000000
   0.500000000   0.999861094   0.250000000
   0.500000000   0.000138906   0.750000000
   0.500000000   0.499845752   0.250000000
   0.500000000   0.500154248   0.750000000
Mg28Ni4O32
   1.00000000
   8.501822613   0.000000000  -0.000000000
   0.000000000   8.498035465  -0.000000000
  -0.000000000  -0.000000000   8.498322913
  Ni  Mg  O
  4  28  32
Direct configuration=     11
   0.000000000   0.000000000   0.000000000
   0.000000000   0.000000000   0.500000000
   0.000000000   0.249872578   0.250000000
   0.000000000   0.750127422   0.750000000