Mg28Ni4O32
   1.00000000
   8.440357766   0.000002081  -0.000006446
   0.000002081   8.440357766  -0.000006446
  -0.000006446  -0.000006446   8.440345963
  Ni  Mg  O
  4  28  32
Direct configuration=     1
   0.000007165   0.000007165   0.000103867
   0.000093824   0.249906176   0.250000000
   0.249906176   0.000093824   0.250000000
   0.249992835   0.249992835   0.499896133
   0.000185083   0.000185083   0.499865723
   0.999978186   0.499963513   0.000014256
   0.000044293   0.499823309   0.499971864
   0.499963513   0.999978186   0.000014256
   0.499823309   0.000044293   0.499971864
   0.500024359   0.500024359   0.999968605
   0.499969945   0.499969945   0.500035213
   0.000046292   0.249953708   0.750000000
   0.000042034   0.750153430   0.249910313
   0.999973874   0.750052283   0.750104404
   0.499846570   0.249957966   0.250089687
   0.499947717   0.250026126   0.749895596
   0.499976017   0.750023983   0.250000000
   0.500016925   0.749983075   0.750000000
   0.249953708   0.000046292   0.750000000
   0.249957966   0.499846570   0.250089687
   0.250026126   0.499947717   0.749895596
   0.750153430   0.000042034   0.249910313
   0.750052283   0.999973874   0.750104404
   0.750023983   0.499976017   0.250000000
   0.749983075   0.500016925   0.750000000
   0.249814917   0.249814917   0.000134277
   0.249955707   0.750176691   0.000028136
   0.250021814   0.750036487   0.499985744
   0.750176691   0.249955707   0.000028136
   0.750036487   0.250021814   0.499985744
   0.750030055   0.750030055   0.999964787
   0.749975641   0.749975641   0.500031395
   0.249933278   0.249933278   0.249947170
   0.249943686   0.249943686   0.750115853
   0.249877922   0.749917863   0.250028598
   0.249957182   0.750073147   0.749937860
   0.749917863   0.249877922   0.250028598
   0.750073147   0.249957182   0.749937860
   0.750080849   0.750080849   0.250007826
   0.750034128   0.750034128   0.750004397
   0.250046064   0.000107236   0.000012108
   0.249892764   0.999953936   0.499987892
   0.249911758   0.499961246   0.000092100
   0.249926178   0.500123178   0.499875980
   0.749876822   0.000073822   0.000124020
   0.750038754   0.000088242   0.499907900
   0.750084628   0.499976647   0.000046242
   0.750023353   0.499915372   0.499953758
   0.000107236   0.250046064   0.000012108
   0.999953936   0.249892764   0.499987892
   0.000073822   0.749876822   0.000124020
   0.000088242   0.750038754   0.499907900
   0.499961246   0.249911758   0.000092100
   0.500123178   0.249926178   0.499875980
   0.499976647   0.750084628   0.000046242
   0.499915372   0.750023353   0.499953758
   0.000066722   0.000066722   0.250052830
   0.000056314   0.000056314   0.749884147
   0.000122078   0.500082137   0.249971402
   0.000042818   0.499926853   0.750062140
   0.500082137   0.000122078   0.249971402
   0.499926853   0.000042818   0.750062140
   0.499919151   0.499919151   0.249992174
   0.499965872   0.499965872   0.749995603
Mg28Ni4O32
   1.00000000
   8.442792093   0.000016200  -0.000050763
   0.000016200   8.442792093  -0.000050763
  -0.000050763  -0.000050763   8.442700314
  Ni  Mg  O
  4  28  32
Direct configuration=     2
   0.000054717   0.000054717   0.000704671
   0.000602450   0.249397550   0.250000000
   0.249397550   0.000602450   0.250000000
   0.249945283   0.249945283   0.499295329
   0.001255760   0.001255760   0.499074602
   0.999944676   0.499747271   0.000138505
   0.000319214   0.498820119   0.499763234
   0.499747271   0.999944676   0.000138505
   0.498820119   0.000319214   0.499763234
   0.500077622   0.500077622   0.999847181
   0.499782104   0.499782104   0.500170211
   0.000337146   0.249662854   0.750000000
   0.000333799   0.751017846   0.249442776
   0.999881761   0.750369758   0.750655083
   0.498982154   0.249666201   0.250557224
   0.499630242   0.250118239   0.749344917
   0.499804768   0.750195232   0.250000000
   0.500053908   0.749946092   0.750000000
   0.249662854   0.000337146   0.750000000
   0.249666201   0.498982154   0.250557224
   0.250118239   0.499630242   0.749344917
   0.751017846   0.000333799   0.249442776
   0.750369758   0.999881761   0.750655083
   0.750195232   0.499804768   0.250000000
   0.749946092   0.500053908   0.750000000
   0.248744240   0.248744240   0.000925398
   0.249680786   0.751179881   0.000236766
   0.250055324   0.750252729   0.499861495
   0.751179881   0.249680786   0.000236766
   0.750252729   0.250055324   0.499861495
   0.750217896   0.750217896   0.999829789
   0.749922378   0.749922378   0.500152819
   0.249471091   0.249471091   0.249708974
   0.249621615   0.249621615   0.750715266
   0.249194453   0.749527269   0.250167897
   0.249717337   0.750512206   0.749605849
   0.749527269   0.249194453   0.250167897
   0.750512206   0.249717337   0.749605849
   0.750551674   0.750551674   0.250028149
   0.750226253   0.750226253   0.750067290
   0.250242279   0.000715662   0.000124563
   0.249284338   0.999757721   0.499875437
   0.249422887   0.499735498   0.000608866
   0.249518284   0.500755378   0.499172121
   0.749244622   0.000481716   0.000827879
   0.750264502   0.000577113   0.499391134
   0.750571198   0.499850253   0.000301538
   0.750149747   0.499428802   0.499698462
   0.000715662   0.250242279   0.000124563
   0.999757721   0.249284338   0.499875437
   0.000481716   0.749244622   0.000827879
   0.000577113   0.750264502   0.499391134
   0.499735498   0.249422887   0.000608866
   0.500755378   0.249518284   0.499172121
   0.499850253   0.750571198   0.000301538
   0.499428802   0.750149747   0.499698462
   0.000528909   0.000528909   0.250291026
   0.000378385   0.000378385   0.749284734
   0.000805547   0.500472731   0.249832103
   0.000282663   0.499487794   0.750394151
   0.500472731   0.000805547   0.249832103
   0.499487794   0.000282663   0.750394151
   0.499448326   0.499448326   0.249971851
   0.499773747   0.499773747   0.749932710
Mg28Ni4O32
   1.00000000
   8.443528649   0.000020293  -0.000064372
   0.000020293   8.443528649  -0.000064372
  -0.000064372  -0.000064372   8.443412742
  Ni  Mg  O
  4  28  32
Direct configuration=     3
   0.000066915   0.000066915   0.000793292
   0.000644941   0.249355059   0.250000000
   0.249355059   0.000644941   0.250000000
   0.249933085   0.249933085   0.499206708
   0.001409778   0.001409778   0.498949735
   0.000019997   0.499712479   0.000192369
   0.000371959   0.498687689   0.499693780
   0.499712479   0.000019997   0.000192369
   0.498687689   0.000371959   0.499693780
   0.500009848   0.500009848   0.999880872
   0.499744487   0.499744487   0.500129665
   0.000399249   0.249600751   0.750000000
   0.000416218   0.751122768   0.249421748
   0.999918869   0.750428810   0.750690121
   0.498877232   0.249583782   0.250578252
   0.499571190   0.250081131   0.749309879
   0.499752443   0.750247557   0.250000000
   0.500007103   0.749992897   0.750000000
   0.249600751   0.000399249   0.750000000
   0.249583782   0.498877232   0.250578252
   0.250081131   0.499571190   0.749309879
   0.751122768   0.000416218   0.249421748
   0.750428810   0.999918869   0.750690121
   0.750247557   0.499752443   0.250000000
   0.749992897   0.500007103   0.750000000
   0.248590222   0.248590222   0.001050265
   0.249628041   0.751312311   0.000306220
   0.249980003   0.750287521   0.499807631
   0.751312311   0.249628041   0.000306220
   0.750287521   0.249980003   0.499807631
   0.750255513   0.750255513   0.999870335
   0.749990152   0.749990152   0.500119128
   0.249340063   0.249340063   0.249734987
   0.249578679   0.249578679   0.750742510
   0.249117414   0.749544718   0.250164120
   0.249684706   0.750590602   0.749583353
   0.749544718   0.249117414   0.250164120
   0.750590602   0.249684706   0.749583353
   0.750625492   0.750625492   0.250011717
   0.750253320   0.750253320   0.750107053
   0.250208445   0.000788357   0.000177596
   0.249211643   0.999791555   0.499822404
   0.249370904   0.499697415   0.000672691
   0.249473560   0.500774922   0.499083788
   0.749225078   0.000526440   0.000916212
   0.750302585   0.000629096   0.499327309
   0.750639657   0.499834513   0.000332286
   0.750165487   0.499360343   0.499667714
   0.000788357   0.250208445   0.000177596
   0.999791555   0.249211643   0.499822404
   0.000526440   0.749225078   0.000916212
   0.000629096   0.750302585   0.499327309
   0.499697415   0.249370904   0.000672691
   0.500774922   0.249473560   0.499083788
   0.499834513   0.750639657   0.000332286
   0.499360343   0.750165487   0.499667714
   0.000659937   0.000659937   0.250265013
   0.000421321   0.000421321   0.749257490
   0.000882586   0.500455282   0.249835880
   0.000315294   0.499409398   0.750416647
   0.500455282   0.000882586   0.249835880
   0.499409398   0.000315294   0.750416647
   0.499374508   0.499374508   0.249988283
   0.499746680   0.499746680   0.749892947
Mg28Ni4O32
   1.00000000
   8.449700715   0.000053860  -0.000178566
   0.000053860   8.449700715  -0.000178566
  -0.000178566  -0.000178566   8.449382462
  Ni  Mg  O
  4  28  32
Direct configuration=     4
   0.000154849   0.000154849   0.001309835
   0.000764066   0.249235934   0.250000000
   0.249235934   0.000764066   0.250000000
   0.249845151   0.249845151   0.498690165
   0.002302237   0.002302237   0.498192519
   0.000757705   0.499503982   0.000635564
   0.000709646   0.497964499   0.499149420
   0.499503982   0.000757705   0.000635564
   0.497964499   0.000709646   0.499149420
   0.499330984   0.499330984   0.000261564
   0.499497963   0.499497963   0.499665897
   0.000834730   0.249165270   0.750000000
   0.001038129   0.751652905   0.249480956
   0.000316775   0.750816943   0.750719827
   0.498347095   0.248961871   0.250519044
   0.499183057   0.249683225   0.749280173
   0.499351246   0.750648754   0.250000000
   0.499541778   0.750458222   0.750000000
   0.249165270   0.000834730   0.750000000
   0.248961871   0.498347095   0.250519044
   0.249683225   0.499183057   0.749280173
   0.751652905   0.001038129   0.249480956
   0.750816943   0.000316775   0.750719827
   0.750648754   0.499351246   0.250000000
   0.750458222   0.499541778   0.750000000
   0.247697763   0.247697763   0.001807481
   0.249290354   0.752035501   0.000850580
   0.249242295   0.750496018   0.499364436
   0.752035501   0.249290354   0.000850580
   0.750496018   0.249242295   0.499364436
   0.750502037   0.750502037   0.000334103
   0.750669016   0.750669016   0.499738436
   0.248346115   0.248346115   0.250118664
   0.249343966   0.249343966   0.750674320
   0.248759093   0.749930489   0.250048037
   0.249478887   0.751102939   0.749559535
   0.749930489   0.248759093   0.250048037
   0.751102939   0.249478887   0.749559535
   0.751088220   0.751088220   0.249856383
   0.750427818   0.750427818   0.750443547
   0.249771566   0.001142395   0.000623405
   0.248857605   0.000228434   0.499376595
   0.249138471   0.499439050   0.001012160
   0.249253954   0.500600192   0.498620768
   0.749399808   0.000746046   0.001379232
   0.750560950   0.000861529   0.498987840
   0.751033416   0.499727363   0.000510560
   0.750272637   0.498966584   0.499489440
   0.001142395   0.249771566   0.000623405
   0.000228434   0.248857605   0.499376595
   0.000746046   0.749399808   0.001379232
   0.000861529   0.750560950   0.498987840
   0.499439050   0.249138471   0.001012160
   0.500600192   0.249253954   0.498620768
   0.499727363   0.751033416   0.000510560
   0.498966584   0.750272637   0.499489440
   0.001653885   0.001653885   0.249881336
   0.000656034   0.000656034   0.749325680
   0.001240907   0.500069511   0.249951963
   0.000521113   0.498897061   0.750440465
   0.500069511   0.001240907   0.249951963
   0.498897061   0.000521113   0.750440465
   0.498911780   0.498911780   0.250143617
   0.499572182   0.499572182   0.749556453
Mg28Ni4O32
   1.00000000
   8.452986448   0.000070842  -0.000239193
   0.000070842   8.452986448  -0.000239193
  -0.000239193  -0.000239193   8.452559601
  Ni  Mg  O
  4  28  32
Direct configuration=     5
   0.000181420   0.000181420   0.001414186
   0.000683429   0.249316571   0.250000000
   0.249316571   0.000683429   0.250000000
   0.249818580   0.249818580   0.498585814
   0.002492977   0.002492977   0.498013689
   0.001129734   0.499462759   0.000818844
   0.000785317   0.497841629   0.498939479
   0.499462759   0.001129734   0.000818844
   0.497841629   0.000785317   0.498939479
   0.498975114   0.498975114   0.000469625
   0.499436355   0.499436355   0.499398548
   0.000980835   0.249019165   0.750000000
   0.001263992   0.751706182   0.249629811
   0.000525166   0.750929544   0.750592927
   0.498293818   0.248736008   0.250370189
   0.499070456   0.249474834   0.749407073
   0.499201622   0.750798378   0.250000000
   0.499303513   0.750696487   0.750000000
   0.249019165   0.000980835   0.750000000
   0.248736008   0.498293818   0.250370189
   0.249474834   0.499070456   0.749407073
   0.751706182   0.001263992   0.249629811
   0.750929544   0.000525166   0.750592927
   0.750798378   0.499201622   0.250000000
   0.750696487   0.499303513   0.750000000
   0.247507023   0.247507023   0.001986311
   0.249214683   0.752158371   0.001060521
   0.248870266   0.750537241   0.499181156
   0.752158371   0.249214683   0.001060521
   0.750537241   0.248870266   0.499181156
   0.750563645   0.750563645   0.000601452
   0.751024886   0.751024886   0.499530375
   0.247977796   0.247977796   0.250371719
   0.249305616   0.249305616   0.750492341
   0.248755916   0.750225161   0.249952624
   0.249398280   0.751254500   0.749642892
   0.750225161   0.248755916   0.249952624
   0.751254500   0.249398280   0.749642892
   0.751225296   0.751225296   0.249795398
   0.750498525   0.750498525   0.750581448
   0.249500053   0.001156635   0.000815729
   0.248843365   0.000499947   0.499184271
   0.249138073   0.499337526   0.001072544
   0.249221917   0.500335657   0.498556009
   0.749664343   0.000778083   0.001443991
   0.750662474   0.000861927   0.498927456
   0.751119440   0.499666285   0.000572656
   0.750333715   0.498880560   0.499427344
   0.001156635   0.249500053   0.000815729
   0.000499947   0.248843365   0.499184271
   0.000778083   0.749664343   0.001443991
   0.000861927   0.750662474   0.498927456
   0.499337526   0.249138073   0.001072544
   0.500335657   0.249221917   0.498556009
   0.499666285   0.751119440   0.000572656
   0.498880560   0.750333715   0.499427344
   0.002022204   0.002022204   0.249628281
   0.000694384   0.000694384   0.749507659
   0.001244084   0.499774839   0.250047376
   0.000601720   0.498745500   0.750357108
   0.499774839   0.001244084   0.250047376
   0.498745500   0.000601720   0.750357108
   0.498774704   0.498774704   0.250204602
   0.499501475   0.499501475   0.749418552
Mg28Ni4O32
   1.00000000
   8.457402034   0.000092405  -0.000320221
   0.000092405   8.457402034  -0.000320221
  -0.000320221  -0.000320221   8.456827428
  Ni  Mg  O
  4  28  32
Direct configuration=     6
   0.000186639   0.000186639   0.001397558
   0.000494978   0.249505022   0.250000000
   0.249505022   0.000494978   0.250000000
   0.249813361   0.249813361   0.498602442
   0.002509309   0.002509309   0.497987215
   0.001476317   0.499480149   0.000955351
   0.000763242   0.497882712   0.498798914
   0.499480149   0.001476317   0.000955351
   0.497882712   0.000763242   0.498798914
   0.498622157   0.498622157   0.000665420
   0.499437777   0.499437777   0.499117872
   0.001069556   0.248930444   0.750000000
   0.001402296   0.751612082   0.249854648
   0.000712790   0.750976717   0.750367468
   0.498387918   0.248597704   0.250145352
   0.499023283   0.249287210   0.749632532
   0.499107341   0.750892659   0.250000000
   0.499077047   0.750922953   0.750000000
   0.248930444   0.001069556   0.750000000
   0.248597704   0.498387918   0.250145352
   0.249287210   0.499023283   0.749632532
   0.751612082   0.001402296   0.249854648
   0.750976717   0.000712790   0.750367468
   0.750892659   0.499107341   0.250000000
   0.750922953   0.499077047   0.750000000
   0.247490691   0.247490691   0.002012785
   0.249236758   0.752117288   0.001201086
   0.248523683   0.750519851   0.499044649
   0.752117288   0.249236758   0.001201086
   0.750519851   0.248523683   0.499044649
   0.750562223   0.750562223   0.000882128
   0.751377843   0.751377843   0.499334580
   0.247737873   0.247737873   0.250652032
   0.249322710   0.249322710   0.750219295
   0.248883125   0.750575734   0.249836834
   0.249298008   0.751326322   0.749802119
   0.750575734   0.248883125   0.249836834
   0.751326322   0.249298008   0.749802119
   0.751312086   0.751312086   0.249776169
   0.750585482   0.750585482   0.750673103
   0.249205824   0.001044929   0.000969517
   0.248955071   0.000794176   0.499030483
   0.249210092   0.499227552   0.001074089
   0.249220319   0.499941988   0.498601389
   0.750058012   0.000779681   0.001398611
   0.750772448   0.000789908   0.498925911
   0.751132647   0.499561678   0.000651294
   0.750438322   0.498867353   0.499348706
   0.001044929   0.249205824   0.000969517
   0.000794176   0.248955071   0.499030483
   0.000779681   0.750058012   0.001398611
   0.000789908   0.750772448   0.498925911
   0.499227552   0.249210092   0.001074089
   0.499941988   0.249220319   0.498601389
   0.499561678   0.751132647   0.000651294
   0.498867353   0.750438322   0.499348706
   0.002262127   0.002262127   0.249347968
   0.000677290   0.000677290   0.749780705
   0.001116875   0.499424266   0.250163166
   0.000701992   0.498673678   0.750197881
   0.499424266   0.001116875   0.250163166
   0.498673678   0.000701992   0.750197881
   0.498687914   0.498687914   0.250223831
   0.499414518   0.499414518   0.749326897
Mg28Ni4O32
   1.00000000
   8.463167865   0.000119277  -0.000425541
   0.000119277   8.463167865  -0.000425541
  -0.000425541  -0.000425541   8.462397835
  Ni  Mg  O
  4  28  32
Direct configuration=     7
   0.000163199   0.000163199   0.001285854
   0.000272087   0.249727913   0.250000000
   0.249727913   0.000272087   0.250000000
   0.249836801   0.249836801   0.498714146
   0.002413248   0.002413248   0.498087565
   0.001679128   0.499554523   0.000997144
   0.000636775   0.498020647   0.498777547
   0.499554523   0.001679128   0.000997144
   0.498020647   0.000636775   0.498777547
   0.498380413   0.498380413   0.000769315
   0.499507927   0.499507927   0.498914089
   0.001087610   0.248912390   0.750000000
   0.001407975   0.751444438   0.250061123
   0.000800927   0.750957176   0.750135033
   0.498555562   0.248592025   0.249938877
   0.499042824   0.249199073   0.749864967
   0.499103539   0.750896461   0.250000000
   0.498937222   0.751062778   0.750000000
   0.248912390   0.001087610   0.750000000
   0.248592025   0.498555562   0.249938877
   0.249199073   0.499042824   0.749864967
   0.751444438   0.001407975   0.250061123
   0.750957176   0.000800927   0.750135033
   0.750896461   0.499103539   0.250000000
   0.751062778   0.498937222   0.750000000
   0.247586752   0.247586752   0.001912435
   0.249363225   0.751979353   0.001222453
   0.248320872   0.750445477   0.499002856
   0.751979353   0.249363225   0.001222453
   0.750445477   0.248320872   0.499002856
   0.750492073   0.750492073   0.001085911
   0.751619587   0.751619587   0.499230685
   0.247698942   0.247698942   0.250855498
   0.249371695   0.249371695   0.749975360
   0.249075263   0.750847326   0.249748210
   0.249165860   0.751312905   0.749982900
   0.750847326   0.249075263   0.249748210
   0.751312905   0.249165860   0.749982900
   0.751360561   0.751360561   0.249831768
   0.750693635   0.750693635   0.750674957
   0.248995196   0.000861510   0.001031266
   0.249138490   0.001004804   0.498968734
   0.249297346   0.499100842   0.001059507
   0.249208911   0.499559988   0.498701235
   0.750440012   0.000791089   0.001298765
   0.750899158   0.000702654   0.498940493
   0.751096340   0.499406410   0.000765329
   0.750593590   0.498903660   0.499234671
   0.000861510   0.248995196   0.001031266
   0.001004804   0.249138490   0.498968734
   0.000791089   0.750440012   0.001298765
   0.000702654   0.750899158   0.498940493
   0.499100842   0.249297346   0.001059507
   0.499559988   0.249208911   0.498701235
   0.499406410   0.751096340   0.000765329
   0.498903660   0.750593590   0.499234671
   0.002301058   0.002301058   0.249144502
   0.000628305   0.000628305   0.750024640
   0.000924737   0.499152674   0.250251790
   0.000834140   0.498687095   0.750017100
   0.499152674   0.000924737   0.250251790
   0.498687095   0.000834140   0.750017100
   0.498639439   0.498639439   0.250168232
   0.499306365   0.499306365   0.749325043
Mg28Ni4O32
   1.00000000
   8.474008880   0.000168446  -0.000623368
   0.000168446   8.474008880  -0.000623368
  -0.000623367  -0.000623367   8.472867511
  Ni  Mg  O
  4  28  32
Direct configuration=     8
   0.000092798   0.000092798   0.001051303
   0.999979430   0.250020570   0.250000000
   0.250020570   0.999979430   0.250000000
   0.249907202   0.249907202   0.498948697
   0.002220873   0.002220873   0.498338049
   0.001726938   0.499723152   0.000919487
   0.000341921   0.498260653   0.498910391
   0.499723152   0.001726938   0.000919487
   0.498260653   0.000341921   0.498910391
   0.498229791   0.498229791   0.000759232
   0.499683121   0.499683121   0.498769380
   0.001032256   0.248967744   0.750000000
   0.001243530   0.751193472   0.250258479
   0.000760459   0.750864249   0.749870823
   0.498806528   0.248756470   0.249741521
   0.499135751   0.249239541   0.750129177
   0.499222232   0.750777768   0.250000000
   0.498883955   0.751116045   0.750000000
   0.248967744   0.001032256   0.750000000
   0.248756470   0.498806528   0.249741521
   0.249239541   0.499135751   0.750129177
   0.751193472   0.001243530   0.250258479
   0.750864249   0.000760459   0.749870823
   0.750777768   0.499222232   0.250000000
   0.751116045   0.498883955   0.750000000
   0.247779127   0.247779127   0.001661951
   0.249658079   0.751739347   0.001089609
   0.248273062   0.750276848   0.499080513
   0.751739347   0.249658079   0.001089609
   0.750276848   0.248273062   0.499080513
   0.750316879   0.750316879   0.001230620
   0.751770209   0.751770209   0.499240768
   0.247909524   0.247909524   0.250981111
   0.249452152   0.249452152   0.749760570
   0.249364348   0.751036849   0.249693967
   0.248937689   0.751196165   0.750217570
   0.751036849   0.249364348   0.249693967
   0.751196165   0.248937689   0.750217570
   0.751397691   0.751397691   0.250017984
   0.750867595   0.750867595   0.750547832
   0.248871514   0.000568502   0.000976129
   0.249431498   0.001128486   0.499023871
   0.249383831   0.498888033   0.001059772
   0.249151192   0.499146139   0.498853984
   0.750853861   0.000848808   0.001146016
   0.751111967   0.000616169   0.498940228
   0.751008637   0.499130523   0.000976394
   0.750869477   0.498991363   0.499023606
   0.000568502   0.248871514   0.000976129
   0.001128486   0.249431498   0.499023871
   0.000848808   0.750853861   0.001146016
   0.000616169   0.751111967   0.498940228
   0.498888033   0.249383831   0.001059772
   0.499146139   0.249151192   0.498853984
   0.499130523   0.751008637   0.000976394
   0.498991363   0.750869477   0.499023606
   0.002090476   0.002090476   0.249018889
   0.000547848   0.000547848   0.750239430
   0.000635652   0.498963151   0.250306033
   0.001062311   0.498803835   0.749782430
   0.498963151   0.000635652   0.250306033
   0.498803835   0.001062311   0.749782430
   0.498602309   0.498602309   0.249982016
   0.499132405   0.499132405   0.749452168
Mg28Ni4O32
   1.00000000
   8.486812468   0.000225206  -0.000857679
   0.000225206   8.486812468  -0.000857679
  -0.000857677  -0.000857677   8.485226615
  Ni  Mg  O
  4  28  32
Direct configuration=     9
   0.999995171   0.999995171   0.000802662
   0.999821307   0.250178693   0.250000000
   0.250178693   0.999821307   0.250000000
   0.250004829   0.250004829   0.499197338
   0.002041960   0.002041960   0.498636653
   0.001446615   0.499925470   0.000687335
   0.999997344   0.498471252   0.499210270
   0.499925470   0.001446615   0.000687335
   0.498471252   0.999997344   0.499210270
   0.498368617   0.498368617   0.000547196
   0.499895527   0.499895527   0.498854231
   0.000893720   0.249106280   0.750000000
   0.000911772   0.751022169   0.250257060
   0.000517282   0.750728224   0.749786718
   0.498977831   0.249088228   0.249742940
   0.499271776   0.249482718   0.750213282
   0.499466320   0.750533680   0.250000000
   0.499034367   0.750965633   0.750000000
   0.249106280   0.000893720   0.750000000
   0.249088228   0.498977831   0.249742940
   0.249482718   0.499271776   0.750213282
   0.751022169   0.000911772   0.250257060
   0.750728224   0.000517282   0.749786718
   0.750533680   0.499466320   0.250000000
   0.750965633   0.499034367   0.750000000
   0.247958040   0.247958040   0.001363347
   0.250002656   0.751528748   0.000789730
   0.248553385   0.750074530   0.499312665
   0.751528748   0.250002656   0.000789730
   0.750074530   0.248553385   0.499312665
   0.750104473   0.750104473   0.001145769
   0.751631383   0.751631383   0.499452804
   0.248395813   0.248395813   0.250846812
   0.249512489   0.249512489   0.749804675
   0.249576298   0.750888614   0.249764108
   0.248744721   0.750980847   0.750336968
   0.750888614   0.249576298   0.249764108
   0.750980847   0.248744721   0.750336968
   0.751374063   0.751374063   0.250284344
   0.750993869   0.750993869   0.750291511
   0.249030180   0.000332066   0.000742893
   0.249667934   0.000969820   0.499257107
   0.249376717   0.498692424   0.001092127
   0.249063393   0.499056510   0.498966552
   0.750943490   0.000936607   0.001033448
   0.751307576   0.000623283   0.498907873
   0.750895862   0.498888626   0.001169056
   0.751111374   0.499104138   0.498830944
   0.000332066   0.249030180   0.000742893
   0.000969820   0.249667934   0.499257107
   0.000936607   0.750943490   0.001033448
   0.000623283   0.751307576   0.498907873
   0.498692424   0.249376717   0.001092127
   0.499056510   0.249063393   0.498966552
   0.498888626   0.750895862   0.001169056
   0.499104138   0.751111374   0.498830944
   0.001604187   0.001604187   0.249153188
   0.000487511   0.000487511   0.750195325
   0.000423702   0.499111386   0.250235892
   0.001255279   0.499019153   0.749663032
   0.499111386   0.000423702   0.250235892
   0.499019153   0.001255279   0.749663032
   0.498625937   0.498625937   0.249715656
   0.499006131   0.499006131   0.749708489
Mg28Ni4O32
   1.00000000
   8.496004579   0.000264729  -0.001027993
   0.000264729   8.496004579  -0.001027993
  -0.001027991  -0.001027991   8.494090891
  Ni  Mg  O
  4  28  32
Direct configuration=     10
   0.999924439   0.999924439   0.000676923
   0.999906553   0.250093447   0.250000000
   0.250093447   0.999906553   0.250000000
   0.250075561   0.250075561   0.499323077
   0.001961438   0.001961438   0.498826194
   0.000959344   0.500052772   0.000415103
   0.999813652   0.498557312   0.499519039
   0.500052772   0.000959344   0.000415103
   0.498557312   0.999813652   0.499519039
   0.498748032   0.498748032   0.000240851
   0.500018091   0.500018091   0.499147506
   0.000732945   0.249267055   0.750000000
   0.000588934   0.751026867   0.250034359
   0.000199099   0.750626138   0.749952966
   0.498973133   0.249411066   0.249965641
   0.499373862   0.249800901   0.750047034
   0.499710012   0.750289988   0.250000000
   0.499327732   0.750672268   0.750000000
   0.249267055   0.000732945   0.750000000
   0.249411066   0.498973133   0.249965641
   0.249800901   0.499373862   0.750047034
   0.751026867   0.000588934   0.250034359
   0.750626138   0.000199099   0.749952966
   0.750289988   0.499710012   0.250000000
   0.750672268   0.499327732   0.750000000
   0.248038562   0.248038562   0.001173806
   0.250186348   0.751442688   0.000480961
   0.249040656   0.749947228   0.499584897
   0.751442688   0.250186348   0.000480961
   0.749947228   0.249040656   0.499584897
   0.749981909   0.749981909   0.000852494
   0.751251968   0.751251968   0.499759149
   0.248911908   0.248911908   0.250498574
   0.249518421   0.249518421   0.750112566
   0.249590050   0.750435487   0.249943634
   0.248755725   0.750754180   0.750244225
   0.750435487   0.249590050   0.249943634
   0.750754180   0.248755725   0.750244225
   0.751255158   0.751255158   0.250467003
   0.750946017   0.750946017   0.750047593
   0.249425026   0.000288623   0.000434524
   0.249711377   0.000574974   0.499565476
   0.249272599   0.498654025   0.001114309
   0.249030305   0.499402895   0.498992140
   0.750597105   0.000969695   0.001007860
   0.751345975   0.000727401   0.498885691
   0.750791414   0.498878888   0.001177122
   0.751121112   0.499208586   0.498822878
   0.000288623   0.249425026   0.000434524
   0.000574974   0.249711377   0.499565476
   0.000969695   0.750597105   0.001007860
   0.000727401   0.751345975   0.498885691
   0.498654025   0.249272599   0.001114309
   0.499402895   0.249030305   0.498992140
   0.498878888   0.750791414   0.001177122
   0.499208586   0.751121112   0.498822878
   0.001088092   0.001088092   0.249501426
   0.000481579   0.000481579   0.749887434
   0.000409950   0.499564513   0.250056366
   0.001244275   0.499245820   0.749755775
   0.499564513   0.000409950   0.250056366
   0.499245820   0.001244275   0.749755775
   0.498744842   0.498744842   0.249532997
   0.499053983   0.499053983   0.749952407
Mg28Ni4O32
   1.00000000
   8.499059412   0.000276917  -0.001088288
   0.000276917   8.499059412  -0.001088288
  -0.001088286  -0.001088286   8.497025441
  Ni  Mg  O
  4  28  32
Direct configuration=     11
   0.999914528   0.999914528   0.000692581
   0.000104078   0.249895922   0.250000000
   0.249895922   0.000104078   0.250000000
   0.250085472   0.250085472   0.499307419