Mg28Ni4O32
   1.00000000
   8.440355234  -0.000002379  -0.000002379
  -0.000002379   8.440343632   0.000001637
  -0.000002379   0.000001637   8.440343632
  Ni  Mg  O
  4  28  32
Direct configuration=     1
   0.000068608   0.000051801   0.000051801
   0.999909018   0.500055284   0.500055284
   0.249991140   0.000039834   0.249900930
   0.249991140   0.249900930   0.000039834
   0.000067244   0.999997220   0.499918584
   0.000067244   0.499918584   0.999997220
   0.499857730   0.000057511   0.000057511
   0.499963522   0.999981377   0.499938718
   0.499963522   0.499938718   0.999981377
   0.499982688   0.500003642   0.500003642
   0.000147697   0.249949293   0.249949293
   0.000041839   0.250044640   0.750046247
   0.000041839   0.750046247   0.250044640
   0.999973448   0.749923980   0.749923980
   0.499826622   0.249953712   0.249953712
   0.499962622   0.250018284   0.750036771
   0.499962622   0.750036771   0.250018284
   0.500022747   0.749999930   0.749999930
   0.249930493   0.000077477   0.750144111
   0.249896076   0.499937899   0.250083686
   0.249926540   0.499933808   0.749929363
   0.750059409   0.999975572   0.249971089
   0.750064538   0.999970496   0.750032691
   0.750079386   0.500033192   0.250108570
   0.750091196   0.500015895   0.749900423
   0.249896076   0.250083686   0.499937899
   0.249930493   0.750144111   0.000077477
   0.249926540   0.749929363   0.499933808
   0.750059409   0.249971089   0.999975572
   0.750079386   0.250108570   0.500033192
   0.750064538   0.750032691   0.999970496
   0.750091196   0.749900423   0.500015895
   0.249980884   0.250000809   0.250000809
   0.249970346   0.249875869   0.749901901
   0.249970346   0.749901901   0.249875869
   0.249983887   0.750072626   0.750072626
   0.749977958   0.249913562   0.249913562
   0.750004648   0.249969284   0.750079777
   0.750004648   0.750079777   0.249969284
   0.750019147   0.750021391   0.750021391
   0.249964141   0.999987676   0.999987676
   0.249882584   0.000069869   0.500122764
   0.249882584   0.500122764   0.000069869
   0.250215668   0.499930768   0.499930768
   0.749937196   0.000079860   0.000079860
   0.750104430   0.000022518   0.499928634
   0.750104430   0.499928634   0.000022518
   0.749825348   0.499983249   0.499983249
   0.999969463   0.250066152   0.000049340
   0.000077782   0.249651621   0.500022341
   0.000108014   0.749855892   0.000038774
   0.000022848   0.750315528   0.500011071
   0.500102467   0.249888167   0.000054292
   0.499934984   0.250017011   0.499986791
   0.499926435   0.750074768   0.000018688
   0.499975603   0.749973598   0.499983379
   0.999969463   0.000049340   0.250066152
   0.000108014   0.000038774   0.749855892
   0.000077782   0.500022341   0.249651621
   0.000022848   0.500011071   0.750315528
   0.500102467   0.000054292   0.249888167
   0.499926435   0.000018688   0.750074768
   0.499934984   0.499986791   0.250017011
   0.499975603   0.499983379   0.749973598
Mg28Ni4O32
   1.00000000
   8.442441125  -0.000016518  -0.000016518
  -0.000016518   8.442362034   0.000011458
  -0.000016518   0.000011458   8.442362034
  Ni  Mg  O
  4  28  32
Direct configuration=     2
   0.000380273   0.000295874   0.000295874
   0.999470791   0.500309847   0.500309847
   0.249942643   0.000224292   0.249452686
   0.249942643   0.249452686   0.000224292
   0.000435054   0.000021771   0.499522694
   0.000435054   0.499522694   0.000021771
   0.499167782   0.000346014   0.000346014
   0.499759985   0.999918820   0.499641633
   0.499759985   0.499641633   0.999918820
   0.499855191   0.499994445   0.499994445
   0.000859913   0.249680682   0.249680682
   0.000266162   0.250217530   0.750284541
   0.000266162   0.750284541   0.250217530
   0.999909541   0.749580765   0.749580765
   0.498984509   0.249730451   0.249730451
   0.499765895   0.250078215   0.750204249
   0.499765895   0.750204249   0.250078215
   0.500073260   0.750027648   0.750027648
   0.249546058   0.000459229   0.750822190
   0.249358509   0.499646167   0.250456738
   0.249560588   0.499620677   0.749618861
   0.750363245   0.999899276   0.249833098
   0.750415189   0.999849821   0.750183080
   0.750485222   0.500159947   0.250577285
   0.750546835   0.500068696   0.749477010
   0.249358509   0.250456738   0.499646167
   0.249546058   0.750822190   0.000459229
   0.249560588   0.749618861   0.499620677
   0.750363245   0.249833098   0.999899276
   0.750485222   0.250577285   0.500159947
   0.750415189   0.750183080   0.999849821
   0.750546835   0.749477010   0.500068696
   0.249858622   0.249964797   0.249964797
   0.249804929   0.249292589   0.749462975
   0.249804929   0.749462975   0.249292589
   0.249885328   0.750410436   0.750410436
   0.749901552   0.249514791   0.249514791
   0.750056095   0.249836324   0.750458804
   0.750056095   0.750458804   0.249836324
   0.750142486   0.750112244   0.750112244
   0.249719244   0.999985613   0.999985613
   0.249348811   0.000396223   0.500652836
   0.249348811   0.500652836   0.000396223
   0.251199491   0.499590330   0.499590330
   0.749696040   0.000450373   0.000450373
   0.750588864   0.000118077   0.499588548
   0.750588864   0.499588548   0.000118077
   0.749028519   0.499912733   0.499912733
   0.999889142   0.250317886   0.000294782
   0.000460506   0.247998114   0.500124844
   0.000629722   0.749229531   0.000229481
   0.000136684   0.751828650   0.500052141
   0.500543113   0.249330198   0.000317576
   0.499607402   0.250080206   0.499914508
   0.499568371   0.750461101   0.000115125
   0.499854707   0.749867653   0.499886281
   0.999889142   0.000294782   0.250317886
   0.000629722   0.000229481   0.749229531
   0.000460506   0.500124844   0.247998114
   0.000136684   0.500052141   0.751828650
   0.500543113   0.000317576   0.249330198
   0.499568371   0.000115125   0.750461101
   0.499607402   0.499914508   0.250080206
   0.499854707   0.499886281   0.749867653
Mg28Ni4O32
   1.00000000
   8.443049877  -0.000020671  -0.000020671
  -0.000020671   8.442951802   0.000014389
  -0.000020671   0.000014389   8.442951802
  Ni  Mg  O
  4  28  32
Direct configuration=     3
   0.000395687   0.000318487   0.000318487
   0.999419869   0.500329788   0.500329788
   0.249931966   0.000237713   0.249429450
   0.249931966   0.249429450   0.000237713
   0.000512546   0.000056988   0.499476967
   0.000512546   0.499476967   0.000056988
   0.499091803   0.000385041   0.000385041
   0.499712969   0.999935880   0.499608586
   0.499712969   0.499608586   0.999935880
   0.499804633   0.499970267   0.499970267
   0.000937116   0.249629485   0.249629485
   0.000309265   0.250198289   0.750325809
   0.000309265   0.750325809   0.250198289
   0.999958711   0.749565544   0.749565544
   0.498888265   0.249707244   0.249707244
   0.499731368   0.250058781   0.750213519
   0.499731368   0.750213519   0.250058781
   0.500027930   0.750055844   0.750055844
   0.249462860   0.000506191   0.750879928
   0.249269691   0.499621855   0.250468242
   0.249512852   0.499590971   0.749612435
   0.750410271   0.999927239   0.249819225
   0.750487966   0.999855350   0.750193458
   0.750549211   0.500145004   0.250577388
   0.750607795   0.500053705   0.749483677
   0.249269691   0.250468242   0.499621855
   0.249462860   0.750879928   0.000506191
   0.249512852   0.749612435   0.499590971
   0.750410271   0.249819225   0.999927239
   0.750549211   0.250577388   0.500145004
   0.750487966   0.750193458   0.999855350
   0.750607795   0.749483677   0.500053705
   0.249817863   0.249926730   0.249926730
   0.249766826   0.249247071   0.749445630
   0.249766826   0.749445630   0.249247071
   0.249854671   0.750435972   0.750435972
   0.749922593   0.249489306   0.249489306
   0.750089823   0.249833461   0.750493261
   0.750089823   0.750493261   0.249833461
   0.750185030   0.750112342   0.750112342
   0.249627334   0.000036528   0.000036528
   0.249324683   0.000421044   0.500655138
   0.249324683   0.500655138   0.000421044
   0.251247945   0.499549262   0.499549262
   0.749727911   0.000476269   0.000476269
   0.750623805   0.000120006   0.499555166
   0.750623805   0.499555166   0.000120006
   0.748989427   0.499912520   0.499912520
   0.999940565   0.250284012   0.000327087
   0.000506011   0.247849405   0.500129538
   0.000684831   0.749223716   0.000252841
   0.000155127   0.751978115   0.500044029
   0.500542204   0.249256857   0.000346461
   0.499558828   0.250067843   0.499897689
   0.499524761   0.750525256   0.000131693
   0.499835380   0.749876973   0.499860433
   0.999940565   0.000327087   0.250284012
   0.000684831   0.000252841   0.749223716
   0.000506011   0.500129538   0.247849405
   0.000155127   0.500044029   0.751978115
   0.500542204   0.000346461   0.249256857
   0.499524761   0.000131693   0.750525256
   0.499558828   0.499897689   0.250067843
   0.499835380   0.499860433   0.749876973
Mg28Ni4O32
   1.00000000
   8.450599034  -0.000071998  -0.000071998
  -0.000071998   8.450267722   0.000050632
  -0.000071998   0.000050632   8.450267722
  Ni  Mg  O
  4  28  32
Direct configuration=     4
   0.000416041   0.000485850   0.000485850
   0.998973499   0.500455363   0.500455363
   0.249817111   0.000312311   0.249371754
   0.249817111   0.249371754   0.000312311
   0.001352274   0.000514132   0.499079884
   0.001352274   0.499079884   0.000514132
   0.498467587   0.000740599   0.000740599
   0.499191983   0.000199672   0.499337537
   0.499191983   0.499337537   0.000199672
   0.499202767   0.499651152   0.499651152
   0.001578587   0.249081570   0.249081570
   0.000756710   0.249835643   0.750764764
   0.000756710   0.750764764   0.249835643
   0.000654023   0.749564380   0.749564380
   0.498066682   0.249525485   0.249525485
   0.499386343   0.249754429   0.750240404
   0.499386343   0.750240404   0.249754429
   0.499395871   0.750424367   0.750424367
   0.248564622   0.000921866   0.751277168
   0.248380107   0.499459380   0.250403722
   0.249090968   0.499363412   0.749709927
   0.750866190   0.000345706   0.249707012
   0.751268542   0.999992490   0.750249438
   0.751176201   0.499872921   0.250300563
   0.751153645   0.499823910   0.749834638
   0.248380107   0.250403722   0.499459380
   0.248564622   0.751277168   0.000921866
   0.249090968   0.749709927   0.499363412
   0.750866190   0.249707012   0.000345706
   0.751176201   0.250300563   0.499872921
   0.751268542   0.750249438   0.999992490
   0.751153645   0.749834638   0.499823910
   0.249328737   0.249440368   0.249440368
   0.249339731   0.248977975   0.749463197
   0.249339731   0.749463197   0.248977975
   0.249483568   0.750588959   0.750588959
   0.750271712   0.249380776   0.249380776
   0.750534912   0.249856095   0.750737777
   0.750534912   0.750737777   0.249856095
   0.750704121   0.750071633   0.750071633
   0.248507991   0.000726210   0.000726210
   0.249320889   0.000563791   0.500376392
   0.249320889   0.500376392   0.000563791
   0.251264350   0.499193632   0.499193632
   0.750323064   0.000612119   0.000612119
   0.750818670   0.000113086   0.499295729
   0.750818670   0.499295729   0.000113086
   0.748967037   0.499936083   0.499936083
   0.000687923   0.249679850   0.000620915
   0.000894623   0.246825506   0.500122723
   0.001131493   0.749509229   0.000455011
   0.000362479   0.753105590   0.499900473
   0.500269007   0.248598484   0.000584345
   0.499084679   0.249848094   0.499701211
   0.499126753   0.751169034   0.000305047
   0.499621328   0.750076508   0.499562709
   0.000687923   0.000620915   0.249679850
   0.001131493   0.000455011   0.749509229
   0.000894623   0.500122723   0.246825506
   0.000362479   0.499900473   0.753105590
   0.500269007   0.000584345   0.248598484
   0.499126753   0.000305047   0.751169034
   0.499084679   0.499701211   0.249848094
   0.499621328   0.499562709   0.750076508
Mg28Ni4O32
   1.00000000
   8.455351747  -0.000103879  -0.000103879
  -0.000103879   8.454874546   0.000073099
  -0.000103879   0.000073099   8.454874546
  Ni  Mg  O
  4  28  32
Direct configuration=     5
   0.000327856   0.000517719   0.000517719
   0.998820604   0.500460795   0.500460795
   0.249768611   0.000303298   0.249458422
   0.249768611   0.249458422   0.000303298
   0.001742773   0.000759219   0.498946753
   0.001742773   0.498946753   0.000759219
   0.498302217   0.000856456   0.000856456
   0.498942131   0.000363787   0.499268893
   0.498942131   0.499268893   0.000363787
   0.498902369   0.499472709   0.499472709
   0.001765218   0.248822782   0.248822782
   0.000942014   0.249576187   0.750982778
   0.000942014   0.750982778   0.249576187
   0.001060577   0.749668044   0.749668044
   0.497812101   0.249487029   0.249487029
   0.499253693   0.249550698   0.750207035
   0.499253693   0.750207035   0.249550698
   0.499030151   0.750635913   0.750635913
   0.248163177   0.001058227   0.751334803
   0.248018057   0.499442510   0.250258275
   0.248968357   0.499307406   0.749859982
   0.751038375   0.000601665   0.249672878
   0.751622604   0.000092976   0.750244436
   0.751422050   0.499685309   0.250000473
   0.751319693   0.499681570   0.750180892
   0.248018057   0.250258275   0.499442510
   0.248163177   0.751334803   0.001058227
   0.248968357   0.749859982   0.499307406
   0.751038375   0.249672878   0.000601665
   0.751422050   0.250000473   0.499685309
   0.751622604   0.750244436   0.000092976
   0.751319693   0.750180892   0.499681570
   0.249069891   0.249184655   0.249184655
   0.249129321   0.248997364   0.749591210
   0.249129321   0.749591210   0.248997364
   0.249277992   0.750589678   0.750589678
   0.750529066   0.249435756   0.249435756
   0.750807918   0.249879347   0.750771967
   0.750807918   0.750771967   0.249879347
   0.750994456   0.750040507   0.750040507
   0.247904742   0.001121791   0.001121791
   0.249487486   0.000549859   0.500063517
   0.249487486   0.500063517   0.000549859
   0.250885253   0.499087020   0.499087020
   0.750774062   0.000588417   0.000588417
   0.750801748   0.000118846   0.499232527
   0.750801748   0.499232527   0.000118846
   0.749247611   0.499947046   0.499947046
   0.001146684   0.249266422   0.000719073
   0.001001906   0.246743361   0.500072751
   0.001247863   0.749847565   0.000512269
   0.000487785   0.753309920   0.499790211
   0.499980441   0.248391504   0.000647379
   0.498889596   0.249680732   0.499590610
   0.498970341   0.751433621   0.000385708
   0.499495294   0.750238568   0.499410877
   0.001146684   0.000719073   0.249266422
   0.001247863   0.000512269   0.749847565
   0.001001906   0.500072751   0.246743361
   0.000487785   0.499790211   0.753309920
   0.499980441   0.000647379   0.248391504
   0.498970341   0.000385708   0.751433621
   0.498889596   0.499590610   0.249680732
   0.499495294   0.499410877   0.750238568
Mg28Ni4O32
   1.00000000
   8.461070363  -0.000141457  -0.000141457
  -0.000141457   8.460417254   0.000099458
  -0.000141457   0.000099458   8.460417254
  Ni  Mg  O
  4  28  32
Direct configuration=     6
   0.000171949   0.000503286   0.000503286
   0.998745867   0.500421198   0.500421198
   0.249746407   0.000259171   0.249605779
   0.249746407   0.249605779   0.000259171
   0.002021226   0.000939983   0.498882244
   0.002021226   0.498882244   0.000939983
   0.498296677   0.000884384   0.000884384
   0.498757944   0.000504419   0.499276234
   0.498757944   0.499276234   0.000504419
   0.498688142   0.499327660   0.499327660
   0.001814927   0.248623692   0.248623692
   0.001036680   0.249321348   0.751179076
   0.001036680   0.751179076   0.249321348
   0.001394237   0.749836375   0.749836375
   0.497728497   0.249503963   0.249503963
   0.499199474   0.249344359   0.750142712
   0.499199474   0.750142712   0.249344359
   0.498729912   0.750823673   0.750823673
   0.247915500   0.001107070   0.751287949
   0.247814263   0.499476067   0.250058795
   0.248967725   0.499297824   0.750059164
   0.751114666   0.000821506   0.249654792
   0.751859629   0.000179106   0.750219864
   0.751550618   0.499509570   0.249639536
   0.751335198   0.499558468   0.750603885
   0.247814263   0.250058795   0.499476067
   0.247915500   0.751287949   0.001107070
   0.248967725   0.750059164   0.499297824
   0.751114666   0.249654792   0.000821506
   0.751550618   0.249639536   0.499509570
   0.751859629   0.750219864   0.000179106
   0.751335198   0.750603885   0.499558468
   0.248857802   0.249004955   0.249004955
   0.248967343   0.249143255   0.749774004
   0.248967343   0.749774004   0.249143255
   0.249092943   0.750539979   0.750539979
   0.750824342   0.249566108   0.249566108
   0.751082989   0.249873362   0.750728771
   0.751082989   0.750728771   0.249873362
   0.751260557   0.750029219   0.750029219
   0.247396859   0.001449931   0.001449931
   0.249763224   0.000468078   0.499691447
   0.249763224   0.499691447   0.000468078
   0.250161353   0.499068865   0.499068865
   0.751273433   0.000500607   0.000500607
   0.750705071   0.000171191   0.499229091
   0.750705071   0.499229091   0.000171191
   0.749767069   0.499932339   0.499932339
   0.001556154   0.248885378   0.000748398
   0.001000737   0.247076563   0.499979048
   0.001254697   0.750245737   0.000511504
   0.000637737   0.753151569   0.499660019
   0.499639629   0.248352890   0.000647943
   0.498763288   0.249491315   0.499479992
   0.498858675   0.751586146   0.000447738
   0.499348843   0.750422467   0.499288939
   0.001556154   0.000748398   0.248885378
   0.001254697   0.000511504   0.750245737
   0.001000737   0.499979048   0.247076563
   0.000637737   0.499660019   0.753151569
   0.499639629   0.000647943   0.248352890
   0.498858675   0.000447738   0.751586146
   0.498763288   0.499479992   0.249491315
   0.499348843   0.499288939   0.750422467
Mg28Ni4O32
   1.00000000
   8.467004377  -0.000179517  -0.000179517
  -0.000179517   8.466167056   0.000125981
  -0.000179517   0.000125981   8.466167056
  Ni  Mg  O
  4  28  32
Direct configuration=     7
   0.000033484   0.000469661   0.000469661
   0.998737287   0.500372243   0.500372243
   0.249762053   0.000212609   0.249706699
   0.249762053   0.249706699   0.000212609
   0.002108086   0.000972787   0.498870993
   0.002108086   0.498870993   0.000972787
   0.498402418   0.000829460   0.000829460
   0.498696467   0.000552137   0.499338325
   0.498696467   0.499338325   0.000552137
   0.498644275   0.499278221   0.499278221
   0.001774379   0.248536750   0.248536750
   0.001008699   0.249194431   0.751312796
   0.001008699   0.751312796   0.249194431
   0.001499391   0.749976289   0.749976289
   0.497775650   0.249554430   0.249554430
   0.499242138   0.249215108   0.750085305
   0.499242138   0.750085305   0.249215108
   0.498631712   0.750917516   0.750917516
   0.247907073   0.001079921   0.751225279
   0.247808448   0.499520716   0.249919971
   0.249074342   0.499304933   0.750202830
   0.751078660   0.000902176   0.249640994
   0.751907992   0.000195193   0.750201555
   0.751541208   0.499432107   0.249401175
   0.751212732   0.499512559   0.750915304
   0.247808448   0.249919971   0.499520716
   0.247907073   0.751225279   0.001079921
   0.249074342   0.750202830   0.499304933
   0.751078660   0.249640994   0.000902176
   0.751541208   0.249401175   0.499432107
   0.751907992   0.750201555   0.000195193
   0.751212732   0.750915304   0.499512559
   0.248770288   0.248992167   0.248992167
   0.248907985   0.249311807   0.749894440
   0.248907985   0.749894440   0.249311807
   0.248992784   0.750497068   0.750497068
   0.751050958   0.249682431   0.249682431
   0.751265741   0.249804270   0.750659254
   0.751265741   0.750659254   0.249804270
   0.751411052   0.750064550   0.750064550
   0.247165761   0.001565071   0.001565071
   0.250000418   0.000378003   0.499460418
   0.250000418   0.499460418   0.000378003
   0.249370571   0.499126415   0.499126415
   0.751616584   0.000416381   0.000416381
   0.750610591   0.000283219   0.499254893
   0.750610591   0.499254893   0.000283219
   0.750298375   0.499881229   0.499881229
   0.001734101   0.248735632   0.000710331
   0.000912733   0.247595031   0.499874784
   0.001194385   0.750472282   0.000460064
   0.000782359   0.752795829   0.499555290
   0.499425113   0.248467399   0.000602557
   0.498724897   0.249359290   0.499398858
   0.498793530   0.751592400   0.000475074
   0.499212763   0.750544188   0.499238904
   0.001734101   0.000710331   0.248735632
   0.001194385   0.000460064   0.750472282
   0.000912733   0.499874784   0.247595031
   0.000782359   0.499555290   0.752795829
   0.499425113   0.000602557   0.248467399
   0.498793530   0.000475074   0.751592400
   0.498724897   0.499398858   0.249359290
   0.499212763   0.499238904   0.750544188
Mg28Ni4O32
   1.00000000
   8.477009772  -0.000242673  -0.000242673
  -0.000242673   8.475858513   0.000169809
  -0.000242673   0.000169809   8.475858513
  Ni  Mg  O
  4  28  32
Direct configuration=     8
   0.999900212   0.000424232   0.000424232
   0.998762286   0.500315493   0.500315493
   0.249826633   0.000163744   0.249739516
   0.249826633   0.249739516   0.000163744
   0.002039695   0.000843865   0.498880612
   0.002039695   0.498880612   0.000843865
   0.498615861   0.000684168   0.000684168
   0.498734840   0.000501389   0.499461527
   0.498734840   0.499461527   0.000501389
   0.498771644   0.499322676   0.499322676
   0.001680976   0.248529159   0.248529159
   0.000845037   0.249193495   0.751442921
   0.000845037   0.751442921   0.249193495
   0.001370477   0.750097478   0.750097478
   0.497918065   0.249642275   0.249642275
   0.499401122   0.249128619   0.750028921
   0.499401122   0.750028921   0.249128619
   0.498737322   0.750939952   0.750939952
   0.248146170   0.000987941   0.751189281
   0.247972476   0.499569136   0.249843500
   0.249310012   0.499303752   0.750300952
   0.750919791   0.000842839   0.249609904
   0.751786116   0.000121364   0.750198990
   0.751411847   0.499451599   0.249268497
   0.750925293   0.499543275   0.751175029
   0.247972476   0.249843500   0.499569136
   0.248146170   0.751189281   0.000987941
   0.249310012   0.750300952   0.499303752
   0.750919791   0.249609904   0.000842839
   0.751411847   0.249268497   0.499451599
   0.751786116   0.750198990   0.000121364
   0.750925293   0.751175029   0.499543275
   0.248794550   0.249176768   0.249176768
   0.248941852   0.249506496   0.749941900
   0.248941852   0.749941900   0.249506496
   0.248957243   0.750486779   0.750486779
   0.751268889   0.249774752   0.249774752
   0.751402691   0.249613426   0.750576084
   0.751402691   0.750576084   0.249613426
   0.751477937   0.750179598   0.750179598
   0.247159616   0.001464790   0.001464790
   0.250226107   0.000281353   0.499366770
   0.250226107   0.499366770   0.000281353
   0.248275697   0.499268883   0.499268883
   0.751873087   0.000340929   0.000340929
   0.750528871   0.000516190   0.499293103
   0.750528871   0.499293103   0.000516190
   0.750961215   0.499769764   0.499769764
   0.001689786   0.248846391   0.000598108
   0.000723290   0.248370122   0.499727286
   0.001083968   0.750499856   0.000344341
   0.000979079   0.752219572   0.499444024
   0.499332245   0.248750893   0.000505941
   0.498746168   0.249269857   0.499317793
   0.498729170   0.751464862   0.000476393
   0.499035202   0.750609238   0.499251635
   0.001689786   0.000598108   0.248846391
   0.001083968   0.000344341   0.750499856
   0.000723290   0.499727286   0.248370122
   0.000979079   0.499444024   0.752219572
   0.499332245   0.000505941   0.248750893
   0.498729170   0.000476393   0.751464862
   0.498746168   0.499317793   0.249269857
   0.499035202   0.499251635   0.750609238
Mg28Ni4O32
   1.00000000
   8.488177375  -0.000312425  -0.000312425
  -0.000312423   8.486670771   0.000218151
  -0.000312423   0.000218151   8.486670771
  Ni  Mg  O
  4  28  32
Direct configuration=     9
   0.999893574   0.000397883   0.000397883
   0.998814679   0.500291799   0.500291799
   0.249925389   0.000152344   0.249617647
   0.249925389   0.249617647   0.000152344
   0.001775354   0.000542731   0.498913584
   0.001775354   0.498913584   0.000542731
   0.498833140   0.000507104   0.000507104
   0.498901066   0.000326296   0.499585726
   0.498901066   0.499585726   0.000326296
   0.499084614   0.499489393   0.499489393
   0.001582449   0.248664975   0.248664975
   0.000586003   0.249414130   0.751460304
   0.000586003   0.751460304   0.249414130
   0.000958607   0.750077834   0.750077834
   0.498100692   0.249720869   0.249720869
   0.499631779   0.249175615   0.750018041
   0.499631779   0.750018041   0.249175615
   0.499096116   0.750827210   0.750827210
   0.248609686   0.000863003   0.751240088
   0.248267276   0.499584770   0.249947991
   0.249563003   0.499284857   0.750234723
   0.750678721   0.000598355   0.249567827
   0.751485142   0.999952431   0.750227582
   0.751203165   0.499614879   0.249433509
   0.750598690   0.499674930   0.751139559
   0.248267276   0.249947991   0.499584770
   0.248609686   0.751240088   0.000863003
   0.249563003   0.750234723   0.499284857
   0.750678721   0.249567827   0.000598355
   0.751203165   0.249433509   0.499614879
   0.751485142   0.750227582   0.999952431
   0.750598690   0.751139559   0.499674930
   0.248998526   0.249553176   0.249553176
   0.249117435   0.249570277   0.749822635
   0.249117435   0.749822635   0.249570277
   0.249072973   0.750555485   0.750555485
   0.751288274   0.249729562   0.249729562
   0.751338422   0.249358574   0.750552630
   0.751338422   0.750552630   0.249358574
   0.751329994   0.750340483   0.750340483
   0.247543328   0.001076163   0.001076163
   0.250241834   0.000263564   0.499590552
   0.250241834   0.499590552   0.000263564
   0.247530835   0.499444961   0.499444961
   0.751768568   0.000345720   0.000345720
   0.750538691   0.000763457   0.499318022
   0.750538691   0.499318022   0.000763457
   0.751292354   0.499658936   0.499658936
   0.001300290   0.249332267   0.000450121
   0.000515350   0.248934032   0.499625882
   0.000986421   0.750136175   0.000212305
   0.001095525   0.751759802   0.499410050
   0.499536451   0.249080889   0.000397102
   0.498847716   0.249350953   0.499304871
   0.498720423   0.751221142   0.000427912
   0.498941805   0.750498382   0.499365928
   0.001300290   0.000450121   0.249332267
   0.000986421   0.000212305   0.750136175
   0.000515350   0.499625882   0.248934032
   0.001095525   0.499410050   0.751759802
   0.499536451   0.000397102   0.249080889
   0.498720423   0.000427912   0.751221142
   0.498847716   0.499304871   0.249350953
   0.498941805   0.499365928   0.750498382
Mg28Ni4O32
   1.00000000
   8.496031501  -0.000361253  -0.000361253
  -0.000361251   8.494268220   0.000252125
  -0.000361251   0.000252125   8.494268220
  Ni  Mg  O
  4  28  32
Direct configuration=     10
   0.000031641   0.000395249   0.000395249
   0.998887564   0.500305820   0.500305820
   0.250008444   0.000181950   0.249410871
   0.250008444   0.249410871   0.000181950
   0.001429561   0.000225803   0.498981715
   0.001429561   0.498981715   0.000225803
   0.498957094   0.000390515   0.000390515
   0.499117894   0.000123171   0.499646851
   0.499117894   0.499646851   0.000123171
   0.499426478   0.499694929   0.499694929
   0.001494972   0.248910339   0.248910339
   0.000367754   0.249752638   0.751304562
   0.000367754   0.751304562   0.249752638
   0.000490119   0.749911785   0.749911785
   0.498270960   0.249752447   0.249752447
   0.499814480   0.249342739   0.750053711
   0.499814480   0.750053711   0.249342739
   0.499515203   0.750624266   0.750624266
   0.249066440   0.000753952   0.751320447
   0.248543351   0.499573686   0.250191117
   0.249684213   0.499277220   0.750027228
   0.750473528   0.000300241   0.249545322
   0.751150719   0.999787264   0.750264740
   0.751024706   0.499830626   0.249829249
   0.750415987   0.499834972   0.750797301
   0.248543351   0.250191117   0.499573686
   0.249066440   0.751320447   0.000753952
   0.249684213   0.750027228   0.499277220
   0.750473528   0.249545322   0.000300241
   0.751024706   0.249829249   0.499830626
   0.751150719   0.750264740   0.999787264
   0.750415987   0.750797301   0.499834972
   0.249306956   0.249919152   0.249919152
   0.249374446   0.249456516   0.749610887
   0.249374446   0.749610887   0.249456516
   0.249319056   0.750663776   0.750663776
   0.751045971   0.249553961   0.249553961
   0.751051198   0.249195917   0.750605054
   0.751051198   0.750605054   0.249195917
   0.750987761   0.750445179   0.750445179
   0.248173076   0.000592384   0.000592384
   0.250022320   0.000341711   0.500019145
   0.250022320   0.500019145   0.000341711
   0.247624126   0.499576192   0.499576192
   0.751304866   0.000421266   0.000421266
   0.750619463   0.000850608   0.499332948
   0.750619463   0.499332948   0.000850608
   0.751032824   0.499643969   0.499643969
   0.000752545   0.249953723   0.000338199
   0.000393550   0.248967206   0.499643743
   0.000937918   0.749554115   0.000133617
   0.001013142   0.751661296   0.499490752
   0.499947971   0.249277928   0.000323013
   0.499001668   0.249611299   0.499393513
   0.498818551   0.750976031   0.000338205
   0.499035817   0.750225256   0.499540717
   0.000752545   0.000338199   0.249953723
   0.000937918   0.000133617   0.749554115
   0.000393550   0.499643743   0.248967206
   0.001013142   0.499490752   0.751661296
   0.499947971   0.000323013   0.249277928
   0.498818551   0.000338205   0.750976031
   0.499001668   0.499393513   0.249611299
   0.499035817   0.499540717   0.750225256
Mg28Ni4O32
   1.00000000
   8.498652833  -0.000378021  -0.000378021
  -0.000378018   8.496795632   0.000264114
  -0.000378018   0.000264114   8.496795632
  Ni  Mg  O
  4  28  32
Direct configuration=     11
   0.000187590   0.000392938   0.000392938
   0.998966186   0.500321184   0.500321184
   0.250035715   0.000213547   0.249291495
   0.250035715   0.249291495   0.000213547