Mg28Ni4O32
   1.00000000
   8.440346824  -0.000004775  -0.000004099
  -0.000004775   8.440346824  -0.000004099
  -0.000004099  -0.000004099   8.440354990
  Ni  Mg  O
  4  28  32
Direct configuration=     1
   0.999951009   0.000057882   0.000019353
   0.499942118   0.500048991   0.499980647
   0.000081456   0.249975789   0.249881160
   0.250024211   0.499918544   0.250118840
   0.999970928   0.000058144   0.499942895
   0.000088489   0.499939528   0.000180469
   0.000060472   0.499911511   0.499819531
   0.500010163   0.999986094   0.999990314
   0.500013906   0.999989837   0.500009686
   0.499941856   0.500029072   0.000057105
   0.999981754   0.249934066   0.750092419
   0.000058325   0.750018761   0.249913238
   0.999976615   0.750090727   0.750096008
   0.499932916   0.250194800   0.250117466
   0.500040367   0.250069703   0.749889862
   0.499926987   0.749805759   0.250092810
   0.500024316   0.749936518   0.749915472
   0.249805200   0.000067084   0.249882534
   0.249930297   0.999959633   0.750110138
   0.250065934   0.500018246   0.749907581
   0.750194241   0.000073013   0.249907190
   0.750063482   0.999975684   0.750084528
   0.749981239   0.499941675   0.250086762
   0.749909273   0.500023385   0.749903992
   0.249820125   0.249971660   0.000161472
   0.250028340   0.250179875   0.499838528
   0.249924139   0.750037422   0.000033248
   0.250079542   0.749817911   0.499944873
   0.750182089   0.249920458   0.000055127
   0.749962578   0.250075861   0.499966752
   0.750081447   0.750081908   0.999985210
   0.749918092   0.749918553   0.500014790
   0.250118226   0.249881774   0.250000000
   0.249928256   0.250071744   0.750000000
   0.249999037   0.750135749   0.250057366
   0.249985803   0.749932853   0.749993913
   0.749864251   0.250000963   0.249942634
   0.750067147   0.250014197   0.750006087
   0.750051452   0.749948548   0.250000000
   0.750012774   0.749987226   0.750000000
   0.250222629   0.000050390   0.000115404
   0.250012068   0.000009465   0.499927965
   0.249963149   0.499948788   0.999852809
   0.249795343   0.499969040   0.500085879
   0.749806093   0.000053829   0.000069422
   0.750000221   0.000012044   0.499972848
   0.749998167   0.499980881   0.000065426
   0.750221203   0.500002963   0.499947882
   0.000030960   0.250204657   0.999914121
   0.000051212   0.250036851   0.500147191
   0.999997037   0.749778797   0.000052118
   0.000019119   0.750001833   0.499934574
   0.499990535   0.249987932   0.000072035
   0.499949610   0.249777371   0.499884596
   0.499987956   0.749999779   0.000027152
   0.499946171   0.750193907   0.499930578
   0.000068691   0.999901058   0.250181034
   0.000021472   0.000074763   0.749786446
   0.999897451   0.500102549   0.250000000
   0.000082136   0.499917864   0.750000000
   0.499932044   0.000067956   0.250000000
   0.499983702   0.000016298   0.750000000
   0.500098942   0.499931309   0.249818966
   0.499925237   0.499978528   0.750213554
Mg28Ni4O32
   1.00000000
   8.442140495  -0.000029932  -0.000025868
  -0.000029932   8.442140495  -0.000025868
  -0.000025868  -0.000025868   8.442191142
  Ni  Mg  O
  4  28  32
Direct configuration=     2
   0.999743743   0.000308167   0.000101920
   0.499691833   0.500256257   0.499898080
   0.000433275   0.249891252   0.249392965
   0.250108748   0.499566725   0.250607035
   0.999882468   0.000311794   0.499693068
   0.000477926   0.499680278   0.000954175
   0.000319722   0.499522074   0.499045825
   0.500037929   0.999969385   0.000024171
   0.500030615   0.999962071   0.499975829
   0.499688206   0.500117532   0.000306932
   0.999943382   0.249720046   0.750453539
   0.000310082   0.750080435   0.249578060
   0.999896707   0.750412238   0.750468140
   0.499647839   0.250991794   0.250584437
   0.500178387   0.250353893   0.749457312
   0.499608042   0.749014177   0.250466579
   0.500104973   0.749679409   0.749580943
   0.249008206   0.000352161   0.249415563
   0.249646107   0.999821613   0.750542688
   0.250279954   0.500056618   0.749546461
   0.750985823   0.000391958   0.249533421
   0.750320591   0.999895027   0.750419057
   0.749919565   0.499689918   0.250421940
   0.749587762   0.500103293   0.749531860
   0.249089139   0.249876046   0.000845985
   0.250123954   0.250910861   0.499154015
   0.249617794   0.750172955   0.000191091
   0.250364255   0.749074354   0.499686600
   0.750925646   0.249635745   0.000313400
   0.749827045   0.250382206   0.499808909
   0.750413820   0.750376836   0.999974048
   0.749623164   0.749586180   0.500025952
   0.250580270   0.249419730   0.250000000
   0.249634285   0.250365715   0.750000000
   0.249998397   0.750660444   0.250299425
   0.249928637   0.749655701   0.749974449
   0.749339556   0.250001603   0.249700575
   0.750344299   0.250071363   0.750025551
   0.750271345   0.749728655   0.250000000
   0.750057815   0.749942185   0.750000000
   0.251104398   0.000270390   0.000618127
   0.250048750   0.000056244   0.499622484
   0.249788657   0.499725728   0.999291427
   0.248947882   0.499825969   0.500402612
   0.749046455   0.000290394   0.000367425
   0.750014458   0.000072828   0.499857151
   0.750004820   0.499895436   0.000349480
   0.751124739   0.500006651   0.499722092
   0.000174031   0.251052118   0.999597388
   0.000274272   0.250211343   0.500708573
   0.999993349   0.748875261   0.000277908
   0.000104564   0.749995180   0.499650520
   0.499943756   0.249951250   0.000377516
   0.499729610   0.248895602   0.499381873
   0.499927172   0.749985542   0.000142849
   0.499709606   0.750953545   0.499632575
   0.000359278   0.999507225   0.250902190
   0.000101277   0.000381704   0.748933141
   0.999499787   0.500500213   0.250000000
   0.000417788   0.499582212   0.750000000
   0.499653131   0.000346869   0.250000000
   0.499929843   0.000070157   0.750000000
   0.500492775   0.499640722   0.249097810
   0.499618296   0.499898723   0.751066859
Mg28Ni4O32
   1.00000000
   8.442686419  -0.000037918  -0.000032908
  -0.000037918   8.442686419  -0.000032908
  -0.000032908  -0.000032908   8.442750292
  Ni  Mg  O
  4  28  32
Direct configuration=     3
   0.999717741   0.000343526   0.000112180
   0.499656474   0.500282259   0.499887820
   0.000481844   0.249896549   0.249346885
   0.250103451   0.499518156   0.250653115
   0.999901743   0.000349115   0.499659093
   0.000536809   0.499650107   0.001055330
   0.000349893   0.499463191   0.498944670
   0.500028317   0.000003926   0.000093332
   0.499996074   0.999971683   0.499906668
   0.499650885   0.500098257   0.000340907
   0.999972333   0.249752349   0.750467654
   0.000344322   0.750071817   0.249567082
   0.999903512   0.750395428   0.750481645
   0.499615361   0.251060541   0.250611311
   0.500166708   0.250376126   0.749434467
   0.499562064   0.748946056   0.250491783
   0.500095145   0.749660906   0.749562578
   0.248939459   0.000384639   0.249388689
   0.249623874   0.999833292   0.750565533
   0.250247651   0.500027667   0.749532346
   0.751053944   0.000437936   0.249508217
   0.750339094   0.999904855   0.750437422
   0.749928183   0.499655678   0.250432918
   0.749604572   0.500096488   0.749518355
   0.249031381   0.249886052   0.000926994
   0.250113948   0.250968619   0.499073006
   0.249595627   0.750169030   0.000224512
   0.250350613   0.749010821   0.499636070
   0.750989179   0.249649387   0.000363930
   0.749830970   0.250404373   0.499775488
   0.750440701   0.750365862   0.000017449
   0.749634138   0.749559299   0.499982551
   0.250598785   0.249401215   0.250000000
   0.249609153   0.250390847   0.750000000
   0.250000752   0.750676976   0.250326004
   0.249922358   0.749629473   0.749977359
   0.749323024   0.249999248   0.249673996
   0.750370527   0.250077642   0.750022641
   0.750298796   0.749701204   0.250000000
   0.750057085   0.749942915   0.750000000
   0.251152186   0.000302691   0.000688000
   0.250038837   0.000068791   0.499584962
   0.249752978   0.499693152   0.999281275
   0.248867341   0.499798675   0.500396694
   0.749013988   0.000325854   0.000407308
   0.750028613   0.000089519   0.499839231
   0.750019200   0.499880229   0.000390121
   0.751201736   0.499998214   0.499690682
   0.000201325   0.251132659   0.999603306
   0.000306848   0.250247022   0.500718725
   0.000001786   0.748798264   0.000309318
   0.000119771   0.749980800   0.499609879
   0.499931209   0.249961163   0.000415038
   0.499697309   0.248847814   0.499312000
   0.499910481   0.749971387   0.000160769
   0.499674146   0.750986012   0.499592692
   0.000391827   0.999484195   0.250944395
   0.000102613   0.000409489   0.748878676
   0.999486594   0.500513406   0.250000000
   0.000446726   0.499553274   0.750000000
   0.499627381   0.000372619   0.250000000
   0.499934302   0.000065698   0.750000000
   0.500515805   0.499608173   0.249055605
   0.499590511   0.499897387   0.751121324
Mg28Ni4O32
   1.00000000
   8.451068296  -0.000161421  -0.000142172
  -0.000161421   8.451068296  -0.000142172
  -0.000142172  -0.000142172   8.451336011
  Ni  Mg  O
  4  28  32
Direct configuration=     4
   0.999417684   0.000764432   0.000221291
   0.499235568   0.500582316   0.499778709
   0.001058306   0.250035794   0.248897960
   0.249964206   0.498941694   0.251102040
   0.000272264   0.000807528   0.499271872
   0.001259069   0.499335103   0.002239294
   0.000664897   0.498740931   0.497760706
   0.499858376   0.000581766   0.001212120
   0.499418234   0.000141624   0.498787880
   0.499192472   0.499727736   0.000728128
   0.000467386   0.250422825   0.750462561
   0.000751399   0.749890397   0.249597935
   0.000059274   0.749907697   0.750462242
   0.499273153   0.251687289   0.250753791
   0.499891604   0.250551097   0.749328291
   0.499011724   0.748323792   0.250659331
   0.499884095   0.749532438   0.749479439
   0.248312711   0.000726847   0.249246209
   0.249448903   0.000108396   0.750671709
   0.249577175   0.499532614   0.749537439
   0.751676208   0.000988276   0.249340669
   0.750467562   0.000115905   0.750520561
   0.750109603   0.499248601   0.250402065
   0.750092303   0.499940726   0.749537758
   0.248554403   0.250108678   0.001823303
   0.249891322   0.251445597   0.498176697
   0.249430322   0.750019423   0.000673213
   0.249932810   0.748439772   0.498981332
   0.751560228   0.250067190   0.001018668
   0.749980577   0.250569678   0.499326787
   0.750662709   0.749992384   0.000736408
   0.750007616   0.749337291   0.499263592
   0.250600583   0.249399417   0.250000000
   0.249386541   0.250613459   0.750000000
   0.250035444   0.750596741   0.250604712
   0.249837437   0.749371484   0.750035466
   0.749403259   0.249964556   0.249395288
   0.750628516   0.250162563   0.749964534
   0.750609331   0.749390669   0.250000000
   0.750031216   0.749968784   0.750000000
   0.251350801   0.000702335   0.001520355
   0.249839533   0.000253839   0.499152468
   0.249281173   0.499290762   0.999497564
   0.248086829   0.499433584   0.500087223
   0.748984879   0.000765569   0.000891043
   0.750259027   0.000333501   0.499588126
   0.750259411   0.499674729   0.000887587
   0.751885124   0.499848109   0.499309528
   0.000566416   0.251913171   0.999912777
   0.000709238   0.250718827   0.500502436
   0.000151891   0.748114876   0.000690472
   0.000325271   0.749740589   0.499112413
   0.499746161   0.250160467   0.000847532
   0.499297665   0.248649199   0.498479645
   0.499666499   0.749740973   0.000411874
   0.499234431   0.751015121   0.499108957
   0.000744493   0.999364714   0.251163545
   0.000089729   0.000679464   0.748541159
   0.999536705   0.500463295   0.250000000
   0.000711866   0.499288134   0.750000000
   0.499378913   0.000621087   0.250000000
   0.500021633   0.999978367   0.750000000
   0.500635286   0.499255507   0.248836455
   0.499320536   0.499910271   0.751458841
Mg28Ni4O32
   1.00000000
   8.457700517  -0.000259936  -0.000229770
  -0.000259936   8.457700517  -0.000229770
  -0.000229770  -0.000229770   8.458130732
  Ni  Mg  O
  4  28  32
Direct configuration=     5
   0.999263936   0.000984460   0.000259433
   0.499015540   0.500736064   0.499740567
   0.001359689   0.250163856   0.248738616
   0.249836144   0.498640311   0.251261384
   0.000571420   0.001066755   0.499098113
   0.001653756   0.499226259   0.002858928
   0.000773741   0.498346244   0.497141072
   0.499733934   0.001013431   0.002030314
   0.498986569   0.000266066   0.497969686
   0.498933245   0.499428580   0.000901887
   0.000834602   0.250994785   0.750318531
   0.000968797   0.749735539   0.249734307
   0.000189911   0.749422686   0.750308472
   0.499141786   0.251871831   0.250688803
   0.499647613   0.250563464   0.749393427
   0.498724647   0.748134856   0.250634070
   0.499702459   0.749549535   0.749547372
   0.248128169   0.000858214   0.249311197
   0.249436536   0.000352387   0.750606573
   0.249005215   0.499165398   0.749681469
   0.751865144   0.001275353   0.249365930
   0.750450465   0.000297541   0.750452628
   0.750264461   0.499031203   0.250265693
   0.750577314   0.499810089   0.749691528
   0.248477707   0.250299398   0.002238115
   0.249700602   0.251522293   0.497761885
   0.249423728   0.749863629   0.000947167
   0.249503020   0.748283085   0.498613771
   0.751716915   0.250496980   0.001386229
   0.750136371   0.250576272   0.499052833
   0.750694510   0.749602545   0.001267083
   0.750397455   0.749305490   0.498732917
   0.250423934   0.249576066   0.250000000
   0.249334263   0.250665737   0.750000000
   0.250052076   0.750317854   0.250714319
   0.249763281   0.749273932   0.750082730
   0.749682146   0.249947924   0.249285681
   0.750726068   0.250236719   0.749917270
   0.750759590   0.749240410   0.250000000
   0.750022080   0.749977920   0.750000000
   0.251137775   0.000932614   0.001959130
   0.249657688   0.000388043   0.498925128
   0.249007342   0.499060347   0.999903225
   0.247822887   0.499204203   0.499730633
   0.749269816   0.001018597   0.001170200
   0.750435581   0.000505958   0.499391724
   0.750447681   0.499538304   0.001169849
   0.752054327   0.499720990   0.499094368
   0.000795797   0.252177113   0.000269367
   0.000939653   0.250992658   0.500096775
   0.000279010   0.747945673   0.000905632
   0.000461696   0.749552319   0.498830151
   0.499611957   0.250342312   0.001074872
   0.499067386   0.248862225   0.498040870
   0.499494042   0.749564419   0.000608276
   0.498981403   0.750730184   0.498829800
   0.000904194   0.999431157   0.251039970
   0.000079302   0.000785440   0.748622367
   0.999739441   0.500260559   0.250000000
   0.000791483   0.499208517   0.750000000
   0.499290087   0.000709913   0.250000000
   0.500069211   0.999930789   0.750000000
   0.500568843   0.499095806   0.248960030
   0.499214560   0.499920698   0.751377633
Mg28Ni4O32
   1.00000000
   8.465098203  -0.000370768  -0.000328942
  -0.000370768   8.465098203  -0.000328942
  -0.000328942  -0.000328942   8.465711944
  Ni  Mg  O
  4  28  32
Direct configuration=     6
   0.999180989   0.001101731   0.000245371
   0.498898269   0.500819011   0.499754629
   0.001522096   0.250280889   0.248728327
   0.249719111   0.498477904   0.251271673
   0.000834669   0.001240242   0.499058322
   0.001883301   0.499260430   0.003216987
   0.000739570   0.498116699   0.496783013
   0.499641135   0.001381923   0.002718858
   0.498618077   0.000358865   0.497281142
   0.498759758   0.499165331   0.000941678
   0.001131288   0.251529420   0.750082700
   0.001097914   0.749593139   0.249921680
   0.000297406   0.748913001   0.750070563
   0.499142740   0.251832265   0.250507740
   0.499420319   0.250474469   0.749540862
   0.498577265   0.748158946   0.250488203
   0.499531813   0.749666072   0.749710135
   0.248167735   0.000857260   0.249492260
   0.249525531   0.000579681   0.750459138
   0.248470580   0.498868712   0.749917300
   0.751841054   0.001422735   0.249511797
   0.750333928   0.000468187   0.750289865
   0.750406861   0.498902086   0.250078320
   0.751086999   0.499702594   0.749929437
   0.248631374   0.250467395   0.002400603
   0.249532605   0.251368626   0.497599397
   0.249506605   0.749703667   0.001135549
   0.249031561   0.748343475   0.498417575
   0.751656525   0.250968439   0.001582425
   0.750296333   0.250493395   0.498864451
   0.750611681   0.749180727   0.001710889
   0.750819273   0.749388319   0.498289111
   0.250133145   0.249866855   0.250000000
   0.249380520   0.250619480   0.750000000
   0.250047363   0.749883479   0.250723989
   0.249658180   0.749253380   0.750125128
   0.750116521   0.249952637   0.249276011
   0.750746620   0.250341820   0.749874872
   0.750828807   0.749171193   0.250000000
   0.750048439   0.749951561   0.750000000
   0.250645603   0.001091462   0.002202679
   0.249457301   0.000511938   0.498783493
   0.248850487   0.498904658   0.000476467
   0.247840573   0.499029604   0.499322832
   0.749770752   0.001193476   0.001374917
   0.750600905   0.000659456   0.499163981
   0.750627723   0.499422089   0.001361191
   0.751935346   0.499587040   0.498946342
   0.000970396   0.252159427   0.000677168
   0.001095342   0.251149513   0.499523533
   0.000412960   0.748064654   0.001053658
   0.000577911   0.749372277   0.498638809
   0.499488062   0.250542699   0.001216507
   0.498908538   0.249354397   0.497797321
   0.499340544   0.749399095   0.000836019
   0.498806524   0.750229248   0.498625083
   0.000968786   0.999615154   0.250695807
   0.000097454   0.000824883   0.748961903
   0.000056770   0.499943230   0.250000000
   0.000776379   0.499223621   0.750000000
   0.499279463   0.000720537   0.250000000
   0.500058254   0.999941746   0.750000000
   0.500384846   0.499031214   0.249304193
   0.499175117   0.499902546   0.751038097
Mg28Ni4O32
   1.00000000
   8.470777609  -0.000456901  -0.000406675
  -0.000456901   8.470777609  -0.000406675
  -0.000406675  -0.000406675   8.471535184
  Ni  Mg  O
  4  28  32
Direct configuration=     7
   0.999195003   0.001075540   0.000184673
   0.498924460   0.500804997   0.499815327
   0.001491629   0.250302553   0.248818187
   0.249697447   0.498508371   0.251181813
   0.000902431   0.001267107   0.499163940
   0.001860798   0.499414536   0.003208995
   0.000585464   0.498139202   0.496791005
   0.499640936   0.001484607   0.002905166
   0.498515393   0.000359064   0.497094834
   0.498732893   0.499097569   0.000836060
   0.001181980   0.251705588   0.749914808
   0.001097843   0.749552393   0.250011502
   0.000305105   0.748689270   0.749915155
   0.499263540   0.251680324   0.250360135
   0.499353868   0.250356563   0.749634247
   0.498624854   0.748290126   0.250333172
   0.499472967   0.749802757   0.749850194
   0.248319676   0.000736460   0.249639865
   0.249643437   0.000646132   0.750365753
   0.248294412   0.498818020   0.750085192
   0.751709874   0.001375146   0.249666828
   0.750197243   0.000527033   0.750149806
   0.750447607   0.498902157   0.249988498
   0.751310730   0.499694895   0.750084845
   0.248865878   0.250499675   0.002284129
   0.249500325   0.251134122   0.497715871
   0.249600805   0.749646714   0.001151395
   0.248794083   0.748509275   0.498495628
   0.751490725   0.251205917   0.001504372
   0.750353286   0.250399195   0.498848605
   0.750486993   0.748985205   0.001821690
   0.751014795   0.749513007   0.498178310
   0.249930267   0.250069733   0.250000000
   0.249474509   0.250525491   0.750000000
   0.250013812   0.749558395   0.250645360
   0.249553322   0.749289623   0.750139195
   0.750441605   0.249986188   0.249354640
   0.750710377   0.250446678   0.749860805
   0.750801841   0.749198159   0.250000000
   0.750114493   0.749885507   0.750000000
   0.250204314   0.001117180   0.002167628
   0.249340064   0.000564988   0.498764878
   0.248895537   0.498883787   0.000877941
   0.248049456   0.498984647   0.499114409
   0.750154453   0.001225491   0.001434156
   0.750670408   0.000721990   0.498988540
   0.750707734   0.499378109   0.001393233
   0.751672660   0.499512605   0.498915354
   0.001015353   0.251950544   0.000885591
   0.001116213   0.251104463   0.499122059
   0.000487395   0.748327340   0.001084646
   0.000621891   0.749292266   0.498606767
   0.499435012   0.250659936   0.001235122
   0.498882820   0.249795686   0.497832372
   0.499278010   0.749329592   0.001011460
   0.498774509   0.749845547   0.498565844
   0.000936356   0.999783586   0.250373841
   0.000156047   0.000819329   0.749304072
   0.000288437   0.499711563   0.250000000
   0.000711616   0.499288384   0.750000000
   0.499321788   0.000678212   0.250000000
   0.499966136   0.000033864   0.750000000
   0.500216414   0.499063644   0.249626159
   0.499180671   0.499843953   0.750695928
Mg28Ni4O32
   1.00000000
   8.479008365  -0.000583170  -0.000521370
  -0.000583170   8.479008365  -0.000521370
  -0.000521370  -0.000521370   8.479978334
  Ni  Mg  O
  4  28  32
Direct configuration=     8
   0.999285910   0.000934462   0.000059080
   0.499065538   0.500714090   0.499940920
   0.001311954   0.250221484   0.248973043
   0.249778516   0.498688046   0.251026957
   0.000804269   0.001202050   0.499427380
   0.001641089   0.499725804   0.002950783
   0.000274196   0.498358911   0.497049217
   0.499734915   0.001383950   0.002709070
   0.498616050   0.000265085   0.497290930
   0.498797950   0.499195731   0.000572620
   0.001018775   0.251592007   0.749780393
   0.001008247   0.749602311   0.249999314
   0.000208843   0.748679630   0.749817446
   0.499526958   0.251457662   0.250239031
   0.499426493   0.250198897   0.749655591
   0.498843283   0.748474864   0.250149306
   0.499498474   0.749987953   0.749989825
   0.248542338   0.000473042   0.249760969
   0.249801103   0.000573507   0.750344409
   0.248407993   0.498981225   0.750219607
   0.751525136   0.001156717   0.249850694
   0.750012047   0.000501526   0.750010175
   0.750397689   0.498991753   0.250000686
   0.751320370   0.499791157   0.750182554
   0.249194330   0.250398985   0.001929181
   0.249601015   0.250805670   0.498070819
   0.249703380   0.749684218   0.001033596
   0.248700529   0.748752727   0.498846916
   0.751247273   0.251299471   0.001153084
   0.750315782   0.250296620   0.498966404
   0.750308993   0.748955953   0.001669508
   0.751044047   0.749691007   0.498330492
   0.249777773   0.250222227   0.250000000
   0.249620140   0.250379860   0.750000000
   0.249930963   0.749242610   0.250475785
   0.249391576   0.749362122   0.750135953
   0.750757390   0.250069037   0.249524215
   0.750637878   0.250608424   0.749864047
   0.750700401   0.749299599   0.250000000
   0.750249998   0.749750002   0.750000000
   0.249715377   0.001047041   0.001908956
   0.249252195   0.000571492   0.498816926
   0.249142332   0.498959491   0.001238094
   0.248428762   0.499024041   0.499043676
   0.750505115   0.001163892   0.001409136
   0.750677018   0.000731400   0.498771580
   0.750727288   0.499380170   0.001323200
   0.751259833   0.499463233   0.498954429
   0.000975959   0.251571238   0.000956324
   0.001040509   0.250857668   0.498761906
   0.000536767   0.748740167   0.001045571
   0.000619830   0.749272712   0.498676800
   0.499428508   0.250747805   0.001183074
   0.498952959   0.250284623   0.498091044
   0.499268600   0.749322982   0.001228420
   0.498836108   0.749494885   0.498590864
   0.000835876   0.999963215   0.250008884
   0.000283570   0.000810115   0.749699526
   0.000497286   0.499502714   0.250000000
   0.000613906   0.499386094   0.750000000
   0.499398391   0.000601609   0.250000000
   0.499747540   0.000252460   0.750000000
   0.500036785   0.499164124   0.249991116
   0.499189885   0.499716430   0.750300474
Mg28Ni4O32
   1.00000000
   8.488374266  -0.000728776  -0.000654281
  -0.000728776   8.488374266  -0.000654281
  -0.000654280  -0.000654280   8.489590501
  Ni  Mg  O
  4  28  32
Direct configuration=     9
   0.999435380   0.000718872   0.999910585
   0.499281128   0.500564620   0.500089415
   0.001034925   0.250012972   0.249097790
   0.249987028   0.498965075   0.250902210
   0.000507416   0.001048332   0.499765703
   0.001272889   0.500084910   0.002499955
   0.999915090   0.498727111   0.497500045
   0.499923753   0.001036082   0.002051781
   0.498963918   0.000076247   0.497948219
   0.498951668   0.499492584   0.000234297
   0.000626154   0.251088123   0.749797925
   0.000846911   0.749770824   0.249813751
   0.000003971   0.749027694   0.749891597
   0.499850068   0.251299258   0.250254859
   0.499673808   0.250098779   0.749521875
   0.499182877   0.748583981   0.250056000
   0.499635017   0.750121779   0.750026278
   0.248700742   0.000149932   0.249745141
   0.249901221   0.000326192   0.750478125
   0.248911877   0.499373846   0.750202075
   0.751416019   0.000817123   0.249944000
   0.749878221   0.000364983   0.749973722
   0.750229176   0.499153089   0.250186249
   0.750972306   0.499996029   0.750108403
   0.249439654   0.250142312   0.001443203
   0.249857688   0.250560346   0.498556797
   0.249733861   0.749858036   0.000792901
   0.248890911   0.748927905   0.499407054
   0.751072095   0.251109089   0.000592946
   0.750141964   0.250266139   0.499207099
   0.750175077   0.749221727   0.001208634
   0.750778273   0.749824923   0.498791366
   0.249819112   0.250180888   0.250000000
   0.249744493   0.250255507   0.750000000
   0.249814309   0.749144120   0.250277933
   0.249238750   0.749435667   0.750116530
   0.750855880   0.250185691   0.249722067
   0.750564333   0.250761250   0.749883470
   0.750558329   0.749441671   0.250000000
   0.750402031   0.749597969   0.750000000
   0.249487382   0.000865971   0.001472665
   0.249266147   0.000488575   0.498936499
   0.249559162   0.499138739   0.001297316
   0.248805596   0.499165673   0.499251655
   0.750552389   0.001000106   0.001261286
   0.750571881   0.000650091   0.498629627
   0.750635033   0.499462436   0.001147127
   0.750897565   0.499488542   0.499073397
   0.000834327   0.251194404   0.000748345
   0.000861261   0.250440838   0.498702684
   0.000511458   0.749102435   0.000926603
   0.000537564   0.749364967   0.498852873
   0.499511425   0.250733853   0.001063501
   0.499134029   0.250512618   0.498527335
   0.499349909   0.749428119   0.001370373
   0.498999894   0.749447611   0.498738714
   0.000705360   0.000028137   0.249820334
   0.000429774   0.000816837   0.749897371
   0.000528535   0.499471465   0.250000000
   0.000540427   0.499459573   0.750000000
   0.499468760   0.000531240   0.250000000
   0.499468774   0.000531226   0.750000000
   0.499971863   0.499294640   0.250179666
   0.499183163   0.499570226   0.750102629
Mg28Ni4O32
   1.00000000
   8.495492726  -0.000842182  -0.000758357
  -0.000842182   8.495492726  -0.000758357
  -0.000758356  -0.000758356   8.496901840
  Ni  Mg  O
  4  28  32
Direct configuration=     10
   0.999575764   0.000544929   0.999823704
   0.499455071   0.500424236   0.500176296
   0.000806492   0.249767885   0.249112071
   0.250232115   0.499193508   0.250887929
   0.000154748   0.000867977   0.499990142
   0.000939211   0.500285892   0.002056387
   0.999714108   0.499060789   0.497943613
   0.500115882   0.000604183   0.001235584
   0.499395817   0.999884118   0.498764416
   0.499132023   0.499845252   0.000009858
   0.000200136   0.250419611   0.749986068
   0.000685363   0.749983231   0.249536893
   0.999794169   0.749602279   0.750128951
   0.500062964   0.251286625   0.250413372
   0.499975488   0.250136695   0.749287686
   0.499474811   0.748554013   0.250130409
   0.499814460   0.750111368   0.749918500
   0.248713375   0.999937036   0.249586628
   0.249863305   0.000024512   0.750712314
   0.249580389   0.499799864   0.750013932
   0.751445987   0.000525189   0.249869591
   0.749888632   0.000185540   0.750081500
   0.750016769   0.499314637   0.250463107
   0.750397721   0.500205831   0.749871049
   0.249458515   0.249851276   0.001064002
   0.250148724   0.250541485   0.498935998
   0.249658756   0.750092934   0.000548362
   0.249301911   0.748929409   0.499893130
   0.751070591   0.250698089   0.000106870
   0.749907066   0.250341244   0.499451638
   0.750173635   0.749689334   0.000655491
   0.750310666   0.749826365   0.499344509
   0.250066305   0.249933695   0.250000000
   0.249774804   0.250225196   0.750000000
   0.249724089   0.749356185   0.250160776
   0.249204458   0.749477962   0.750101338
   0.750643815   0.250275911   0.249839224
   0.750522038   0.250795542   0.749898662
   0.750449836   0.749550164   0.250000000
   0.750458346   0.749541654   0.750000000
   0.249705783   0.000632323   0.001055440
   0.249405267   0.000323801   0.499086495
   0.249948009   0.499357444   0.000957907
   0.248978942   0.499357635   0.499681161
   0.750206169   0.000793822   0.001010228
   0.750376080   0.000494640   0.498702379
   0.750448879   0.499615824   0.000928907
   0.750785328   0.499602767   0.499237476
   0.000642365   0.251021058   0.000318839
   0.000642556   0.250051991   0.499042093
   0.000397233   0.749214672   0.000762524
   0.000384176   0.749551121   0.499071093
   0.499676199   0.250594733   0.000913505
   0.499367677   0.250294217   0.498944560
   0.499505360   0.749623920   0.001297621
   0.499206178   0.749793831   0.498989772
   0.000606961   0.999913204   0.249936423
   0.000481557   0.000824682   0.749748141
   0.000329753   0.499670247   0.250000000
   0.000528800   0.499471200   0.750000000
   0.499499153   0.000500847   0.250000000
   0.499307104   0.000692896   0.750000000
   0.500086796   0.499393039   0.250063577
   0.499175318   0.499518443   0.750251859
Mg28Ni4O32
   1.00000000
   8.497890021  -0.000883978  -0.000797132
  -0.000883978   8.497890021  -0.000797132
  -0.000797131  -0.000797131   8.499371052
  Ni  Mg  O
  4  28  32
Direct configuration=     11
   0.999638472   0.000503443   0.999839024
   0.499496557   0.500361528   0.500160976
   0.000742821   0.249648111   0.249054829
   0.250351889   0.499257179   0.250945171