H107LiMg53
   1.00000000
   13.503017154   0.000003107   0.000000002
   0.000003107   13.503017154   0.000000002
   0.000000001   0.000000001   9.029981236
  Li  Mg  H
  1  53  107
Direct configuration=     1
   0.000000112   0.000000112   0.000000190
   0.999999806   0.999999806   0.332895749
   0.000000162   0.000000162   0.667104059
   0.999999222   0.333303818   0.999998151
   0.999998996   0.333322510   0.333326019
   0.999997423   0.333321349   0.666675847
   0.000000321   0.666696090   0.000000521
   0.000000346   0.666679484   0.333326042
   0.000002084   0.666678610   0.666673446
   0.333303818   0.999999223   0.999998151
   0.333322510   0.999998996   0.333326020
   0.333321349   0.999997423   0.666675847
   0.333321719   0.333321719   0.999964258
   0.333146303   0.333146303   0.333328690
   0.333321545   0.333321545   0.666706856
   0.333321952   0.666667828   0.999992631
   0.333319437   0.666691198   0.333335333
   0.333327277   0.666662472   0.666672052
   0.666696090   0.000000321   0.000000521
   0.666679485   0.000000346   0.333326042
   0.666678610   0.000002084   0.666673446
   0.666667828   0.333321952   0.999992631
   0.666691198   0.333319437   0.333335333
   0.666662472   0.333327277   0.666672052
   0.666661279   0.666661279   0.000003616
   0.666696604   0.666696605   0.333328829
   0.666661466   0.666661466   0.666667568
   0.166535103   0.166535103   0.166488798
   0.166657650   0.166657650   0.499990409
   0.166535711   0.166535710   0.833520882
   0.166659241   0.500006214   0.166655906
   0.166661339   0.500006087   0.500008173
   0.166666030   0.500005112   0.833335938
   0.166528050   0.833471840   0.166619930
   0.166657731   0.833342129   0.500000742
   0.166525625   0.833474726   0.833379265
   0.500006215   0.166659241   0.166655905
   0.500006087   0.166661339   0.500008173
   0.500005112   0.166666030   0.833335938
   0.500159998   0.500159998   0.166243534
   0.500159865   0.500159865   0.500424071
   0.500006946   0.500006946   0.833332303
   0.499999965   0.833338400   0.166664390
   0.500000100   0.833336269   0.499999661
   0.499999973   0.833337583   0.833335952
   0.833471839   0.166528050   0.166619930
   0.833342129   0.166657731   0.500000742
   0.833474726   0.166525626   0.833379265
   0.833338400   0.499999965   0.166664390
   0.833336269   0.500000100   0.499999661
   0.833337583   0.499999973   0.833335951
   0.833466941   0.833466940   0.166479405
   0.833344528   0.833344528   0.499999565
   0.833465878   0.833465878   0.833521069
   0.101608877   0.101608877   0.000000558
   0.101464293   0.101464293   0.333405673
   0.101465949   0.101465949   0.666593823
   0.101439941   0.434771992   0.999999825
   0.101440292   0.434773173   0.333332342
   0.101438096   0.434770717   0.666667833
   0.101456579   0.768074116   0.999999637
   0.101437186   0.768084588   0.333356099
   0.101437266   0.768084294   0.666644247
   0.434771992   0.101439941   0.999999825
   0.434773172   0.101440292   0.333332342
   0.434770717   0.101438096   0.666667833
   0.434768388   0.434768388   0.000010843
   0.434768071   0.434768071   0.666656221
   0.434772950   0.768106437   0.000001062
   0.434775215   0.768102705   0.333332553
   0.434773235   0.768107118   0.666666376
   0.768074116   0.101456579   0.999999637
   0.768084588   0.101437186   0.333356100
   0.768084294   0.101437266   0.666644247
   0.768106437   0.434772950   0.000001061
   0.768102705   0.434775215   0.333332553
   0.768107118   0.434773235   0.666666376
   0.768038741   0.768038741   0.999999204
   0.768109354   0.768109354   0.333325897
   0.768108418   0.768108418   0.666674907
   0.231960596   0.231960596   0.999999439
   0.231893697   0.231893697   0.333326024
   0.231890867   0.231890867   0.666674591
   0.231891933   0.565225826   0.999997636
   0.231920276   0.565213215   0.333332552
   0.231891246   0.565225540   0.666669818
   0.231926417   0.898543517   0.999999835
   0.231916160   0.898563216   0.333356108
   0.231916246   0.898562846   0.666644065
   0.565225826   0.231891933   0.999997635
   0.565213216   0.231920276   0.333332552
   0.565225540   0.231891246   0.666669818
   0.565236222   0.565236222   0.000006768
   0.565026678   0.565026678   0.333332864
   0.565236527   0.565236527   0.666660331
   0.565226922   0.898559712   0.000000592
   0.565228149   0.898562380   0.333332343
   0.565228196   0.898561566   0.666667066
   0.898543517   0.231926417   0.999999835
   0.898563216   0.231916160   0.333356108
   0.898562846   0.231916246   0.666644065
   0.898559712   0.565226923   0.000000592
   0.898562380   0.565228149   0.333332343
   0.898561566   0.565228196   0.666667066
   0.898391160   0.898391160   0.000000038
   0.898533930   0.898533929   0.333405525
   0.898534284   0.898534284   0.666594395
   0.065214596   0.268137294   0.166690015
   0.065224079   0.268098922   0.500002184
   0.065216429   0.268136512   0.833307794
   0.065227558   0.601440157   0.166668627
   0.065227625   0.601439630   0.499999515
   0.065228143   0.601439523   0.833331858
   0.065358951   0.934641114   0.166966806
   0.065215356   0.934784688   0.499999934
   0.065358735   0.934641313   0.833033252
   0.398581013   0.268160856   0.166737235
   0.398583676   0.268162652   0.499928785
   0.398557752   0.268101711   0.833333994
   0.398573105   0.601375616   0.166744614
   0.398573601   0.601375175   0.499922004
   0.398553017   0.601447139   0.833333421
   0.398560027   0.934771333   0.166667692
   0.398560560   0.934771256   0.500000445
   0.398559882   0.934771685   0.833331860
   0.731893555   0.268105479   0.166672286
   0.731889311   0.268109752   0.499993565
   0.731900948   0.268100856   0.833334141
   0.731892033   0.601438130   0.166671770
   0.731890259   0.601435470   0.499994245
   0.731902964   0.601443004   0.833333996
   0.731863016   0.934783022   0.166692506
   0.731901335   0.934773579   0.499999702
   0.731862871   0.934782968   0.833307789
   0.268137294   0.065214597   0.166690014
   0.268098922   0.065224079   0.500002184
   0.268136512   0.065216429   0.833307794
   0.268160856   0.398581014   0.166737235
   0.268162652   0.398583676   0.499928785
   0.268101711   0.398557752   0.833333994
   0.268105479   0.731893555   0.166672286
   0.268109752   0.731889311   0.499993565
   0.268100856   0.731900948   0.833334141
   0.601440157   0.065227558   0.166668627
   0.601439630   0.065227625   0.499999515
   0.601439523   0.065228143   0.833331858
   0.601375616   0.398573106   0.166744614
   0.601375175   0.398573601   0.499922005
   0.601447139   0.398553017   0.833333421
   0.601438131   0.731892033   0.166671770
   0.601435471   0.731890259   0.499994245
   0.601443004   0.731902964   0.833333997
   0.934641114   0.065358951   0.166966806
   0.934784688   0.065215356   0.499999934
   0.934641313   0.065358735   0.833033252
   0.934771333   0.398560028   0.166667692
   0.934771256   0.398560560   0.500000445
   0.934771685   0.398559882   0.833331860
   0.934783022   0.731863016   0.166692506
   0.934773579   0.731901335   0.499999702
   0.934782968   0.731862871   0.833307789
H107LiMg53
   1.00000000
   13.503224777   0.000039827   0.000000027
   0.000039827   13.503224775   0.000000027
   0.000000018   0.000000018   9.029761142
  Li  Mg  H
  1  53  107
Direct configuration=     2
   0.000001398   0.000001397   0.000002254
   0.999995984   0.999995986   0.328239200
   0.000001873   0.000001875   0.671758204
   0.999992832   0.332995687   0.999976427
   0.999986152   0.333212615   0.333265634
   0.999966890   0.333197340   0.666758068
   0.000000301   0.667004056   0.000005216
   0.000005898   0.666814681   0.333265858
   0.000025865   0.666803007   0.666728996
   0.332995687   0.999992833   0.999976427
   0.333212616   0.999986148   0.333265632
   0.333197341   0.999966888   0.666758069
   0.333209838   0.333209840   0.999592555
   0.331015383   0.331015379   0.333283078
   0.333184392   0.333184404   0.667121372
   0.333190820   0.666681618   0.999939114
   0.333159553   0.666965808   0.333350284
   0.333260332   0.666611720   0.666710680
   0.667004051   0.000000299   0.000005219
   0.666814683   0.000005902   0.333265864
   0.666803007   0.000025866   0.666728996
   0.666681614   0.333190819   0.999939123
   0.666965809   0.333159551   0.333350293
   0.666611722   0.333260332   0.666710672
   0.666603078   0.666603074   0.000049816
   0.666979851   0.666979851   0.333284742
   0.666628127   0.666628126   0.666665559
   0.165084904   0.165084907   0.164597463
   0.166569746   0.166569749   0.499898651
   0.165096929   0.165096927   0.835504720
   0.166583972   0.500072626   0.166541619
   0.166609409   0.500068908   0.500089955
   0.166651553   0.500063695   0.833368678
   0.165062392   0.834935845   0.166151177
   0.166538492   0.833459417   0.500008252
   0.165032850   0.834971415   0.833839901
   0.500072625   0.166583971   0.166541624
   0.500068910   0.166609409   0.500089950
   0.500063695   0.166651554   0.833368679
   0.501982492   0.501982495   0.161534919
   0.501980728   0.501980731   0.505138786
   0.500067516   0.500067518   0.833325131
   0.499997257   0.833401152   0.166634883
   0.500000977   0.833375446   0.499996299
   0.499998007   0.833393839   0.833368860
   0.834935845   0.165062389   0.166151180
   0.833459413   0.166538490   0.500008257
   0.834971415   0.165032852   0.833839902
   0.833401151   0.499997260   0.166634882
   0.833375445   0.500000977   0.499996305
   0.833393837   0.499998005   0.833368852
   0.834934594   0.834934593   0.164495249
   0.833451793   0.833451791   0.499998163
   0.834919407   0.834919407   0.835507031
   0.103491996   0.103491997   0.000008002
   0.101804591   0.101804591   0.334188992
   0.101818533   0.101818534   0.665803153
   0.101515150   0.434821131   0.999999141
   0.101521363   0.434840263   0.333325721
   0.101496079   0.434810180   0.666675083
   0.101721613   0.767792482   0.999996272
   0.101494458   0.767905397   0.333621262
   0.101495320   0.767902111   0.666382255
   0.434821131   0.101515155   0.999999138
   0.434840265   0.101521363   0.333325725
   0.434810183   0.101496079   0.666675080
   0.434785923   0.434785924   0.000087974
   0.434781941   0.434781939   0.666580321
   0.434838821   0.768171988   0.000016392
   0.434871759   0.768134370   0.333328293
   0.434841555   0.768180655   0.666655167
   0.767792482   0.101721615   0.999996274
   0.767905396   0.101494458   0.333621255
   0.767902113   0.101495322   0.666382254
   0.768171988   0.434838821   0.000016393
   0.768134370   0.434871758   0.333328294
   0.768180657   0.434841557   0.666655166
   0.767352847   0.767352847   0.999992205
   0.768242198   0.768242200   0.333190738
   0.768220605   0.768220604   0.666817322
   0.232637536   0.232637539   0.999999757
   0.231739493   0.231739492   0.333192086
   0.231769608   0.231769609   0.666808887
   0.231803040   0.565143673   0.999971191
   0.232150782   0.564984848   0.333328260
   0.231794277   0.565140919   0.666700590
   0.232213976   0.898279190   0.999998486
   0.232104340   0.898510474   0.333621352
   0.232104378   0.898505649   0.666380244
   0.565143675   0.231803041   0.999971189
   0.564984850   0.232150781   0.333328259
   0.565140917   0.231794277   0.666700590
   0.565313217   0.565313217   0.999972393
   0.562724707   0.562724707   0.333330898
   0.565317086   0.565317085   0.666696212
   0.565165774   0.898484251   0.000008368
   0.565176132   0.898512761   0.333325765
   0.565176745   0.898503456   0.666665882
   0.898279189   0.232213977   0.999998487
   0.898510476   0.232104342   0.333621348
   0.898505650   0.232104379   0.666380246
   0.898484248   0.565165774   0.000008370
   0.898512758   0.565176130   0.333325766
   0.898503457   0.565176745   0.666665881
   0.896509943   0.896509942   0.000000215
   0.898180328   0.898180329   0.334187096
   0.898185821   0.898185821   0.665811998
   0.065017069   0.268545882   0.166945174
   0.065124542   0.268088296   0.500024634
   0.065037364   0.268536601   0.833030185
   0.065167344   0.601518971   0.166684406
   0.065165256   0.601514224   0.499993603
   0.065174872   0.601510318   0.833322017
   0.066687182   0.933312922   0.170286196
   0.064988041   0.935011863   0.499999528
   0.066683704   0.933316556   0.829714402
   0.398762022   0.268850957   0.167535534
   0.398791255   0.268872882   0.499123292
   0.398462701   0.268117615   0.833341770
   0.398628472   0.600724383   0.167607543
   0.398631402   0.600722196   0.499054049
   0.398405322   0.601599882   0.833338883
   0.398484209   0.934818336   0.166672381
   0.398489023   0.934820300   0.500005544
   0.398482653   0.934822339   0.833322068
   0.731860080   0.268127589   0.166730476
   0.731766321   0.268221671   0.499924593
   0.731957120   0.268064742   0.833344908
   0.731790299   0.601482770   0.166741336
   0.731768484   0.601453986   0.499917099
   0.731931084   0.601547784   0.833341710
   0.731457175   0.934955929   0.166973790
   0.731914126   0.934848849   0.499996029
   0.731455586   0.934956245   0.833030156
   0.268545881   0.065017069   0.166945171
   0.268088295   0.065124542   0.500024637
   0.268536601   0.065037364   0.833030187
   0.268850959   0.398762024   0.167535537
   0.268872885   0.398791254   0.499123299
   0.268117620   0.398462696   0.833341763
   0.268127591   0.731860079   0.166730476
   0.268221668   0.731766324   0.499924592
   0.268064742   0.731957119   0.833344909
   0.601518972   0.065167342   0.166684408
   0.601514222   0.065165257   0.499993600
   0.601510319   0.065174870   0.833322016
   0.600724385   0.398628471   0.167607539
   0.600722197   0.398631402   0.499054050
   0.601599881   0.398405326   0.833338878
   0.601482771   0.731790299   0.166741338
   0.601453988   0.731768482   0.499917097
   0.601547784   0.731931084   0.833341708
   0.933312920   0.066687179   0.170286197
   0.935011864   0.064988039   0.499999529
   0.933316558   0.066683700   0.829714402
   0.934818337   0.398484208   0.166672372
   0.934820299   0.398489026   0.500005538
   0.934822340   0.398482653   0.833322071
   0.934955930   0.731457174   0.166973789
   0.934848848   0.731914127   0.499996030
   0.934956248   0.731455584   0.833030158
H107LiMg53
   1.00000000
   13.503246943   0.000042554   0.000000030
   0.000042554   13.503246941   0.000000030
   0.000000020   0.000000020   9.029747162
  Li  Mg  H
  1  53  107
Direct configuration=     3
   0.000001492   0.000001491   0.000002264
   0.999994673   0.999994675   0.328335196
   0.000001803   0.000001805   0.671661873
   0.999994611   0.333004421   0.999975045
   0.999984210   0.333216986   0.333280122
   0.999964563   0.333200337   0.666744915
   0.999997343   0.666996202   0.000004462
   0.000007640   0.666813727   0.333280317
   0.000027079   0.666800884   0.666715302
   0.333004420   0.999994612   0.999975045
   0.333216987   0.999984207   0.333280121
   0.333200338   0.999964560   0.666744915
   0.333221960   0.333221962   0.999609461
   0.330931666   0.330931662   0.333284071
   0.333173152   0.333173162   0.667102905
   0.333179640   0.666686609   0.999963682
   0.333148441   0.666975568   0.333340125
   0.333255355   0.666610484   0.666695988
   0.666996198   0.999997342   0.000004465
   0.666813729   0.000007644   0.333280324
   0.666800883   0.000027079   0.666715302
   0.666686605   0.333179638   0.999963689
   0.666975569   0.333148440   0.333340131
   0.666610486   0.333255355   0.666695983
   0.666608072   0.666608068   0.000054961
   0.666953153   0.666953152   0.333285542
   0.666655358   0.666655357   0.666659617
   0.165075904   0.165075908   0.164659833
   0.166581715   0.166581718   0.499912153
   0.165093823   0.165093820   0.835428691
   0.166592913   0.500071819   0.166547826
   0.166618799   0.500065942   0.500083028
   0.166647776   0.500066323   0.833369404
   0.165115655   0.834882133   0.166188477
   0.166520960   0.833476542   0.500007758
   0.165085913   0.834918405   0.833803217
   0.500071819   0.166592913   0.166547829
   0.500065944   0.166618800   0.500083023
   0.500066323   0.166647776   0.833369407
   0.502047526   0.502047530   0.161461983
   0.502045652   0.502045655   0.505211558
   0.500051988   0.500051990   0.833325228
   0.499995307   0.833404931   0.166633898
   0.500001042   0.833378930   0.499996492
   0.499996512   0.833399654   0.833369647
   0.834882133   0.165115652   0.166188477
   0.833476539   0.166520957   0.500007763
   0.834918404   0.165085915   0.833803218
   0.833404930   0.499995311   0.166633897
   0.833378930   0.500001043   0.499996498
   0.833399652   0.499996510   0.833369639
   0.834937647   0.834937646   0.164568900
   0.833434430   0.833434428   0.500000923
   0.834920055   0.834920055   0.835430725
   0.103463750   0.103463751   0.000009501
   0.101803187   0.101803187   0.334182932
   0.101812545   0.101812546   0.665807579
   0.101515080   0.434816582   0.000000444
   0.101523052   0.434840051   0.333326369
   0.101498480   0.434809241   0.666673097
   0.101729271   0.767792303   0.999996903
   0.101505733   0.767893181   0.333635993
   0.101506406   0.767890114   0.666366879
   0.434816583   0.101515084   0.000000441
   0.434840052   0.101523052   0.333326373
   0.434809244   0.101498480   0.666673093
   0.434789754   0.434789755   0.000050106
   0.434784860   0.434784857   0.666618635
   0.434839659   0.768167655   0.000019879
   0.434878195   0.768136345   0.333328662
   0.434841932   0.768176914   0.666651285
   0.767792304   0.101729274   0.999996905
   0.767893181   0.101505733   0.333635986
   0.767890116   0.101506407   0.666366877
   0.768167655   0.434839659   0.000019879
   0.768136345   0.434878195   0.333328663
   0.768176917   0.434841935   0.666651284
   0.767337267   0.767337267   0.999993897
   0.768267141   0.768267143   0.333140029
   0.768237947   0.768237946   0.666866440
   0.232651504   0.232651507   0.000006605
   0.231648335   0.231648334   0.333141154
   0.231751537   0.231751537   0.666853171
   0.231802125   0.565140200   0.999970540
   0.232159881   0.564972878   0.333328604
   0.231792758   0.565137909   0.666700890
   0.232214255   0.898271187   0.999999017
   0.232117423   0.898499341   0.333636070
   0.232116452   0.898494212   0.666365018
   0.565140202   0.231802126   0.999970539
   0.564972880   0.232159881   0.333328603
   0.565137907   0.231792758   0.666700890
   0.565364627   0.565364627   0.999838088
   0.562661396   0.562661396   0.333330486
   0.565369362   0.565369361   0.666830965
   0.565170095   0.898487579   0.000009704
   0.565176818   0.898513455   0.333326448
   0.565177460   0.898504315   0.666663862
   0.898271186   0.232214256   0.999999018
   0.898499343   0.232117425   0.333636068
   0.898494212   0.232116453   0.666365020
   0.898487575   0.565170094   0.000009706
   0.898513452   0.565176816   0.333326450
   0.898504313   0.565177458   0.666663861
   0.896539880   0.896539879   0.999999835
   0.898186815   0.898186817   0.334181010
   0.898193266   0.898193266   0.665818197
   0.065019768   0.268548234   0.166949275
   0.065122589   0.268089617   0.500023556
   0.065038726   0.268538800   0.833027194
   0.065166803   0.601519339   0.166682798
   0.065162057   0.601515795   0.499992953
   0.065174571   0.601509832   0.833324286
   0.066644914   0.933354569   0.170354632
   0.064959587   0.935039705   0.499999790
   0.066640321   0.933359697   0.829645856
   0.398789069   0.268877598   0.167567632
   0.398815323   0.268899758   0.499094740
   0.398468153   0.268115046   0.833338419
   0.398616747   0.600699528   0.167623042
   0.398617821   0.600699286   0.499037489
   0.398408240   0.601600164   0.833340040
   0.398484555   0.934818039   0.166669841
   0.398488175   0.934822647   0.500005812
   0.398483205   0.934821870   0.833324353
   0.731888897   0.268097942   0.166731166
   0.731760934   0.268226194   0.499925623
   0.731994024   0.268028165   0.833343288
   0.731776633   0.601471285   0.166757342
   0.731754516   0.601445937   0.499904555
   0.731927770   0.601543465   0.833338234
   0.731454360   0.934954413   0.166977012
   0.731912375   0.934851967   0.499995718
   0.731452932   0.934955599   0.833027227
   0.268548234   0.065019767   0.166949272
   0.268089617   0.065122589   0.500023558
   0.268538800   0.065038726   0.833027196
   0.268877599   0.398789070   0.167567635
   0.268899760   0.398815322   0.499094747
   0.268115050   0.398468149   0.833338412
   0.268097943   0.731888896   0.166731165
   0.268226192   0.731760937   0.499925623
   0.268028166   0.731994024   0.833343289
   0.601519340   0.065166801   0.166682800
   0.601515792   0.065162058   0.499992949
   0.601509832   0.065174570   0.833324285
   0.600699530   0.398616746   0.167623038
   0.600699287   0.398617821   0.499037489
   0.601600163   0.398408243   0.833340036
   0.601471286   0.731776633   0.166757343
   0.601445939   0.731754514   0.499904553
   0.601543464   0.731927770   0.833338232
   0.933354567   0.066644911   0.170354634
   0.935039706   0.064959585   0.499999792
   0.933359699   0.066640317   0.829645857
   0.934818040   0.398484554   0.166669832
   0.934822646   0.398488178   0.500005807
   0.934821871   0.398483204   0.833324355
   0.934954414   0.731454360   0.166977012
   0.934851966   0.731912376   0.499995719
   0.934955602   0.731452930   0.833027229
H107LiMg53
   1.00000000
   13.503706285   0.000102266   0.000000082
   0.000102266   13.503706287   0.000000083
   0.000000055   0.000000055   9.029441318
  Li  Mg  H
  1  53  107
Direct configuration=     4
   0.000003310   0.000003308   0.000002678
   0.999974696   0.999974696   0.329234740
   0.000000503   0.000000499   0.670755885
   0.000024563   0.333100240   0.999947373
   0.999946765   0.333279522   0.333523276
   0.999917484   0.333235246   0.666528725
   0.999946509   0.666917104   0.999992707
   0.000040534   0.666818384   0.333522957
   0.000054552   0.666782624   0.666484599
   0.333100280   0.000024569   0.999947370
   0.333279518   0.999946760   0.333523278
   0.333235244   0.999917485   0.666528719
   0.333428186   0.333428185   0.999847389
   0.328971223   0.328971222   0.333287023
   0.332945433   0.332945409   0.666850939
   0.332945090   0.666783149   0.000392390
   0.332911780   0.667206999   0.333161970
   0.333149872   0.666577422   0.666439676
   0.666917104   0.999946511   0.999992710
   0.666818386   0.000040542   0.333522959
   0.666782628   0.000054558   0.666484597
   0.666783141   0.332945084   0.000392399
   0.667207003   0.332911778   0.333161963
   0.666577428   0.333149868   0.666439681
   0.666706949   0.666706946   0.000149097
   0.666510304   0.666510303   0.333285298
   0.667168624   0.667168619   0.666565991
   0.164618042   0.164618057   0.165366614
   0.166765182   0.166765186   0.500159632
   0.164760195   0.164760217   0.834477472
   0.166742619   0.500070870   0.166638658
   0.166781490   0.500026901   0.499972904
   0.166574427   0.500122174   0.833388835
   0.165763572   0.834225467   0.166776542
   0.166175858   0.833813581   0.500000864
   0.165723778   0.834281809   0.833224085
   0.500070874   0.166742617   0.166638643
   0.500026900   0.166781497   0.499972903
   0.500122173   0.166574429   0.833388847
   0.503586044   0.503586044   0.159216701
   0.503581937   0.503581941   0.507460888
   0.499775704   0.499775705   0.833320130
   0.499962316   0.833486362   0.166608835
   0.500003581   0.833450126   0.500000957
   0.499972330   0.833513583   0.833390150
   0.834225480   0.165763586   0.166776536
   0.833813582   0.166175862   0.500000874
   0.834281809   0.165723780   0.833224088
   0.833486354   0.499962322   0.166608850
   0.833450130   0.500003587   0.500000962
   0.833513584   0.499972330   0.833390143
   0.835277107   0.835277102   0.165481731
   0.833141586   0.833141587   0.500045103
   0.835213089   0.835213088   0.834476263
   0.103308439   0.103308434   0.000030484
   0.101827015   0.101827018   0.334250522
   0.101769806   0.101769806   0.665712512
   0.101532590   0.434745008   0.000028920
   0.101570692   0.434846521   0.333338349
   0.101555205   0.434798417   0.666632003
   0.101918423   0.767739239   0.000008886
   0.101727757   0.767632356   0.333966025
   0.101723401   0.767632717   0.666024711
   0.434744993   0.101532582   0.000028912
   0.434846519   0.101570693   0.333338352
   0.434798414   0.101555204   0.666631996
   0.434885045   0.434885047   0.999376496
   0.434852849   0.434852850   0.667300174
   0.434863726   0.768097407   0.000090279
   0.435010659   0.768174291   0.333331827
   0.434859587   0.768119748   0.666577197
   0.767739235   0.101918418   0.000008882
   0.767632359   0.101727756   0.333966022
   0.767632716   0.101723398   0.666024709
   0.768097410   0.434863730   0.000090273
   0.768174298   0.435010661   0.333331827
   0.768119753   0.434859596   0.666577193
   0.766952647   0.766952647   0.000025871
   0.768723319   0.768723322   0.332189911
   0.768576293   0.768576292   0.667786084
   0.233015840   0.233015842   0.000139609
   0.229954222   0.229954220   0.332183620
   0.231406886   0.231406887   0.667678709
   0.231770332   0.565064788   0.999955316
   0.232371809   0.564713449   0.333331320
   0.231747673   0.565069017   0.666713334
   0.232270516   0.898075752   0.000009579
   0.232396946   0.898280708   0.333965869
   0.232376646   0.898270805   0.666025271
   0.565064791   0.231770334   0.999955314
   0.564713454   0.232371813   0.333331337
   0.565069013   0.231747670   0.666713332
   0.566312119   0.566312116   0.997329882
   0.561095043   0.561095041   0.333323070
   0.566342868   0.566342869   0.669346622
   0.565234526   0.898531336   0.000037091
   0.565180788   0.898518102   0.333339091
   0.565181158   0.898508883   0.666623839
   0.898075754   0.232270520   0.000009586
   0.898280697   0.232396925   0.333965866
   0.898270803   0.232376647   0.666025268
   0.898531334   0.565234526   0.000037096
   0.898518098   0.565180788   0.333339096
   0.898508869   0.565181147   0.666623828
   0.896721235   0.896721235   0.999991714
   0.898239770   0.898239771   0.334248955
   0.898259956   0.898259961   0.665753041
   0.065029895   0.268669748   0.167073015
   0.065071620   0.268110404   0.500011566
   0.065028952   0.268653641   0.832916279
   0.065149412   0.601537931   0.166659319
   0.065097662   0.601550203   0.499979229
   0.065158279   0.601514152   0.833361682
   0.066180399   0.933807431   0.172238860
   0.064413147   0.935574515   0.500004233
   0.066156184   0.933840280   0.827760343
   0.399321629   0.269503867   0.168312839
   0.399289119   0.269529550   0.498415819
   0.398549521   0.268073239   0.833275796
   0.398396638   0.600129035   0.168054681
   0.398376009   0.600152391   0.498581474
   0.398414888   0.601652010   0.833366611
   0.398476394   0.934821404   0.166625812
   0.398464290   0.934872745   0.500012368
   0.398478853   0.934822903   0.833362015
   0.732387303   0.267581313   0.166759667
   0.731647813   0.268320582   0.499928539
   0.732650708   0.267380449   0.833313982
   0.731497089   0.601256427   0.167073349
   0.731470120   0.601298528   0.499653183
   0.731884121   0.601482231   0.833273279
   0.731327362   0.934959616   0.167091212
   0.731886778   0.934917663   0.499990991
   0.731328965   0.934976433   0.832917528
   0.268669747   0.065029895   0.167073017
   0.268110405   0.065071616   0.500011566
   0.268653649   0.065028943   0.832916273
   0.269503867   0.399321631   0.168312847
   0.269529549   0.399289121   0.498415814
   0.268073231   0.398549530   0.833275807
   0.267581313   0.732387302   0.166759663
   0.268320580   0.731647816   0.499928543
   0.267380447   0.732650709   0.833313979
   0.601537936   0.065149407   0.166659322
   0.601550203   0.065097665   0.499979225
   0.601514149   0.065158280   0.833361682
   0.600129036   0.398396633   0.168054675
   0.600152391   0.398376011   0.498581471
   0.601652013   0.398414890   0.833366613
   0.601256430   0.731497089   0.167073346
   0.601298531   0.731470114   0.499653183
   0.601482229   0.731884123   0.833273280
   0.933807432   0.066180396   0.172238864
   0.935574510   0.064413151   0.500004228
   0.933840282   0.066156180   0.827760346
   0.934821406   0.398476398   0.166625805
   0.934872746   0.398464292   0.500012369
   0.934822900   0.398478859   0.833362001
   0.934959615   0.731327359   0.167091214
   0.934917664   0.731886779   0.499990994
   0.934976434   0.731328961   0.832917529
H107LiMg53
   1.00000000
   13.503770492   0.000111644   0.000000087
   0.000111644   13.503770494   0.000000088
   0.000000059   0.000000059   9.029400054
  Li  Mg  H
  1  53  107
Direct configuration=     5
   0.000003294   0.000003292   0.000002493
   0.999978354   0.999978354   0.329288390
   0.999999885   0.999999880   0.670701734
   0.000025638   0.333098863   0.999946344
   0.999943537   0.333287919   0.333533760
   0.999914093   0.333241196   0.666519286
   0.999945788   0.666920948   0.999992988
   0.000043891   0.666816493   0.333533335
   0.000058504   0.666779025   0.666473931
   0.333098902   0.000025643   0.999946344
   0.333287915   0.999943533   0.333533763
   0.333241194   0.999914094   0.666519278
   0.333453335   0.333453334   0.999864845
   0.328730983   0.328730981   0.333279007
   0.332927332   0.332927305   0.666839862
   0.332915255   0.666795321   0.000420738
   0.332884451   0.667232473   0.333151095
   0.333137063   0.666572512   0.666421118
   0.666920948   0.999945790   0.999992991
   0.666816497   0.000043897   0.333533337
   0.666779028   0.000058509   0.666473929
   0.666795313   0.332915249   0.000420746
   0.667232477   0.332884450   0.333151085
   0.666572517   0.333137059   0.666421125
   0.666738850   0.666738847   0.000148775
   0.666463508   0.666463508   0.333277596
   0.667241918   0.667241913   0.666574367
   0.164534287   0.164534300   0.165325054
   0.166758861   0.166758864   0.500203666