H107LiMg53
   1.00000000
   13.503017167   0.000003099   0.000000006
   0.000003099   13.503017168   0.000000011
   0.000000004   0.000000007   9.029981229
  Li  Mg  H
  1  53  107
Direct configuration=     1
   0.999999408   0.999999370   0.999999596
   0.000001023   0.000000409   0.332896388
   0.999999894   0.999998767   0.667105789
   0.999992575   0.333297039   0.999963880
   0.999815504   0.333138014   0.333325710
   0.999990980   0.333313843   0.666709287
   0.999994963   0.666690357   0.999992712
   0.999988730   0.666701650   0.333326106
   0.999996667   0.666672965   0.666681141
   0.333304038   0.000001172   0.000000568
   0.333322385   0.999997622   0.333325982
   0.333321594   0.999999348   0.666673447
   0.333323652   0.333324581   0.999992514
   0.333352273   0.333316447   0.333328956
   0.333323497   0.333324350   0.666678483
   0.333317177   0.666663848   0.000003617
   0.333357696   0.666693652   0.333335305
   0.333322493   0.666658495   0.666661085
   0.666696200   0.999999792   0.000000241
   0.666678299   0.000001146   0.333326022
   0.666678684   0.000001527   0.666673760
   0.666672071   0.333326524   0.999998112
   0.666668319   0.333333077   0.333335289
   0.666666765   0.333331883   0.666666624
   0.666671498   0.666670871   0.000000516
   0.666669943   0.666671917   0.333328808
   0.666671668   0.666671044   0.666670678
   0.166540612   0.166531216   0.166471296
   0.166662612   0.166653984   0.500007671
   0.166539171   0.166538468   0.833520717
   0.166822145   0.500160397   0.166239335
   0.166824507   0.500160623   0.500425034
   0.166668937   0.500007158   0.833335904
   0.166525797   0.833474825   0.166620975
   0.166655476   0.833345038   0.499999720
   0.166525802   0.833473805   0.833379183
   0.499997689   0.166664362   0.166663304
   0.499997505   0.166666499   0.500000746
   0.500000545   0.166661936   0.833335950
   0.500000323   0.500000188   0.166668043
   0.500000324   0.500000186   0.499999653
   0.499999517   0.500000202   0.833332304
   0.500000899   0.833339183   0.166664484
   0.500001029   0.833337049   0.499999564
   0.499999811   0.833338096   0.833335952
   0.833475244   0.166526442   0.166630216
   0.833345843   0.166656393   0.499990280
   0.833475758   0.166527297   0.833379285
   0.833335454   0.500005729   0.166655976
   0.833333272   0.500005919   0.500008116
   0.833342127   0.500004697   0.833335914
   0.833468218   0.833463226   0.166478283
   0.833345822   0.833340800   0.500000691
   0.833465769   0.833466102   0.833521007
   0.101608262   0.101607242   0.999999019
   0.101467170   0.101467622   0.333405538
   0.101464654   0.101465271   0.666594563
   0.101436340   0.434768879   0.000010850
   0.101434529   0.434767658   0.666656819
   0.101458023   0.768075106   0.000001130
   0.101440734   0.768080764   0.333356200
   0.101438703   0.768085249   0.666642850
   0.434773585   0.101439884   0.999999646
   0.434772600   0.101437964   0.333332357
   0.434772304   0.101438042   0.666667996
   0.434773928   0.434773359   0.000001059
   0.434769222   0.434775060   0.333332906
   0.434773605   0.434773038   0.666666034
   0.434771436   0.768104350   0.999999214
   0.434772635   0.768105952   0.333332556
   0.434771718   0.768105032   0.666668228
   0.768073816   0.101457448   0.000000493
   0.768082370   0.101436503   0.333356102
   0.768084073   0.101438143   0.666643380
   0.768104471   0.434771031   0.999999809
   0.768107354   0.434773754   0.333332563
   0.768105162   0.434771304   0.666667631
   0.768038819   0.768039942   0.999999652
   0.768108423   0.768109906   0.333325878
   0.768108498   0.768109608   0.666674475
   0.231958405   0.231957702   0.999997648
   0.231876431   0.231916593   0.333325932
   0.231888744   0.231887815   0.666676701
   0.231903689   0.565236598   0.000006867
   0.231692805   0.565026153   0.333332508
   0.231903018   0.565236341   0.666660657
   0.231926390   0.898543067   0.000000630
   0.231916154   0.898563174   0.333356077
   0.231916213   0.898562333   0.666643306
   0.565228606   0.231895010   0.999999844
   0.565228686   0.231894235   0.333332562
   0.565228316   0.231894326   0.666667595
   0.565227685   0.565227488   0.000000594
   0.565228809   0.565227751   0.333332890
   0.565227996   0.565227799   0.666666515
   0.565226882   0.898559469   0.000000090
   0.565227789   0.898560959   0.333332339
   0.565228156   0.898561325   0.666667571
   0.898543050   0.231926337   0.999999524
   0.898565424   0.231918941   0.333355889
   0.898562072   0.231916182   0.666644389
   0.898556458   0.565224867   0.999997615
   0.898587324   0.565213775   0.333332359
   0.898558311   0.565226122   0.666670054
   0.898391061   0.898391738   0.999999747
   0.898534276   0.898535355   0.333405613
   0.898534362   0.898535041   0.666594658
   0.065238821   0.268193889   0.166764172
   0.065248882   0.268156011   0.499928262
   0.065216374   0.268134940   0.833307867
   0.065241203   0.601375846   0.166746169
   0.065241064   0.601375612   0.499921981
   0.065220899   0.601447669   0.833331856
   0.065358648   0.934641130   0.166966014
   0.065214895   0.934784888   0.500000400
   0.065358457   0.934641526   0.833033360
   0.398553754   0.268107945   0.166672431
   0.398556323   0.268109737   0.499993554
   0.398561043   0.268103327   0.833333981
   0.398556295   0.601436438   0.166672333
   0.398556798   0.601435918   0.499994244
   0.398567210   0.601441303   0.833333422
   0.398560022   0.934771929   0.166668435
   0.398560552   0.934771872   0.499999699
   0.398559875   0.934771896   0.833331865
   0.731896039   0.268101541   0.166663641
   0.731891811   0.268105745   0.500002170
   0.731897831   0.268100746   0.833334128
   0.731895399   0.601441336   0.166666488
   0.731893629   0.601438682   0.499999520
   0.731896000   0.601440696   0.833333992
   0.731863464   0.934782197   0.166692240
   0.731901838   0.934772775   0.499999950
   0.731863271   0.934782457   0.833307792
   0.268137198   0.065216354   0.166692674
   0.268098865   0.065225917   0.499999483
   0.268136533   0.065217115   0.833307793
   0.268039917   0.398571569   0.166744010
   0.268041638   0.398574099   0.499922018
   0.268111419   0.398551328   0.833333956
   0.268098208   0.731894461   0.166671640
   0.268102476   0.731890258   0.499994249
   0.268103080   0.731905432   0.833334131
   0.601439547   0.065228924   0.166668195
   0.601439010   0.065228993   0.499999950
   0.601439789   0.065228672   0.833331855
   0.601439216   0.398560540   0.166666132
   0.601438704   0.398561052   0.500000447
   0.601439578   0.398560393   0.833333421
   0.601441517   0.731896285   0.166666302
   0.601438854   0.731894504   0.499999704
   0.601441466   0.731896144   0.833333994
   0.934641736   0.065355941   0.166963894
   0.934785410   0.065212123   0.500002157
   0.934640962   0.065357844   0.833033227
   0.934829084   0.398581967   0.166739472
   0.934828514   0.398582743   0.499929114
   0.934769579   0.398558878   0.833331885
   0.934786885   0.731857906   0.166698699
   0.934777458   0.731896155   0.499993530
   0.934782209   0.731865220   0.833307757
H107LiMg53
   1.00000000
   13.503223279   0.000039475   0.000000077
   0.000039475   13.503223270   0.000000118
   0.000000051   0.000000079   9.029762836
  Li  Mg  H
  1  53  107
Direct configuration=     2
   0.999992564   0.999991682   0.999994497
   0.000013875   0.000004022   0.328284940
   0.999999122   0.999984331   0.671742218
   0.999914931   0.332917300   0.999590534
   0.997736180   0.330949716   0.333263940
   0.999891651   0.333108598   0.667132902
   0.999939648   0.666925003   0.999940679
   0.999863026   0.667077636   0.333267241
   0.999964190   0.666726531   0.666791817
   0.333000844   0.000017210   0.000005656
   0.333212016   0.999971426   0.333265675
   0.333201323   0.999991094   0.666728582
   0.333225784   0.333247428   0.999938023
   0.333552987   0.333120869   0.333286671
   0.333200861   0.333221686   0.666774605
   0.333148270   0.666658157   0.000049512
   0.333566725   0.666937783   0.333349764
   0.333217284   0.666588797   0.666600781
   0.667002299   0.999993991   0.000002522
   0.666796138   0.000013000   0.333266199
   0.666802319   0.000019082   0.666731553
   0.666738563   0.333243853   0.999976148
   0.666688764   0.333328749   0.333349721
   0.666669892   0.333313211   0.666674406
   0.666708699   0.666701807   0.000005127
   0.666713890   0.666738305   0.333284985
   0.666733575   0.666726744   0.666709891
   0.165166396   0.165069345   0.164427822
   0.166633630   0.166544842   0.500083276
   0.165153847   0.165141468   0.835485933
   0.168576263   0.501973871   0.161523220
   0.168604523   0.501974234   0.505112617
   0.166673481   0.500070615   0.833368043
   0.165046915   0.834961581   0.166166395
   0.166511723   0.833495556   0.499997093
   0.165047688   0.834951801   0.833835212
   0.499973544   0.166634176   0.166623216
   0.499969251   0.166659772   0.500008225
   0.500008701   0.166604543   0.833368562
   0.500006234   0.500000947   0.166678514
   0.500006266   0.500000895   0.499996225
   0.499999077   0.500001742   0.833325268
   0.500012001   0.833409938   0.166633179
   0.500015683   0.833384403   0.499998232
   0.499996576   0.833394496   0.833368599
   0.834956678   0.165049030   0.166262691
   0.833495795   0.166516915   0.499897814
   0.834968028   0.165063880   0.833836411
   0.833374221   0.500064254   0.166543327
   0.833348058   0.500068536   0.500088654
   0.833439845   0.500056335   0.833368167
   0.834935320   0.834876154   0.164502000
   0.833463630   0.833404181   0.500007636
   0.834905331   0.834911682   0.835490246
   0.103467594   0.103459483   0.999989903
   0.101829475   0.101836614   0.334180451
   0.101798697   0.101809741   0.665818794
   0.101471587   0.434787097   0.000087180
   0.101453069   0.434776869   0.666586870
   0.101733473   0.767800604   0.000017232
   0.101539285   0.767862269   0.333620267
   0.101508785   0.767909039   0.666364676
   0.434840253   0.101511129   0.999996418
   0.434832562   0.101491353   0.333325985
   0.434829292   0.101492249   0.666677587
   0.434842866   0.434838985   0.000016201
   0.434793221   0.434865455   0.333331445
   0.434838880   0.434835021   0.666652358
   0.434819754   0.768148993   0.999992378
   0.434843808   0.768179012   0.333328416
   0.434822440   0.768157606   0.666679199
   0.767792170   0.101730474   0.000007670
   0.767887619   0.101492332   0.333619062
   0.767901922   0.101505959   0.666372945
   0.768156940   0.434817818   0.999999040
   0.768190710   0.434850227   0.333328458
   0.768165612   0.434820415   0.666672537
   0.767363125   0.767376242   0.999996490
   0.768223495   0.768240499   0.333191543
   0.768224272   0.768237181   0.666811991
   0.232604305   0.232596221   0.999971769
   0.231588143   0.232083243   0.333191777
   0.231743252   0.231732572   0.666839567
   0.231983730   0.565313005   0.999973749
   0.229398253   0.562733918   0.333327762
   0.231975328   0.565310636   0.666698896
   0.232211743   0.898277147   0.000008732
   0.232102077   0.898510722   0.333618859
   0.232102887   0.898501184   0.666372576
   0.565176678   0.231839980   0.999998607
   0.565178688   0.231831248   0.333328484
   0.565173896   0.231831359   0.666672929
   0.565171080   0.565168649   0.000008333
   0.565184160   0.565171881   0.333331224
   0.565174938   0.565172514   0.666660438
   0.565165957   0.898482061   0.000000935
   0.565171220   0.898495510   0.333325777
   0.565176846   0.898501141   0.666673277
   0.898278662   0.232212453   0.000000731
   0.898473666   0.232070567   0.333615950
   0.898499705   0.232104216   0.666380479
   0.898446001   0.565141369   0.999971184
   0.898818799   0.564996851   0.333325998
   0.898465051   0.565152117   0.666703150
   0.896523824   0.896531158   0.999997544
   0.898188876   0.898200431   0.334181817
   0.898189043   0.898196451   0.665820887
   0.065327767   0.269236028   0.167845464
   0.065440263   0.268789030   0.499123076
   0.065038657   0.268511999   0.833033508
   0.065316203   0.600734454   0.167617211
   0.065311703   0.600733385   0.499060826
   0.065092234   0.601607113   0.833322022
   0.066672109   0.933324931   0.170249763
   0.064984161   0.935012927   0.500005089
   0.066669923   0.933329330   0.829743320
   0.398408997   0.268200455   0.166733177
   0.398436397   0.268222344   0.499924934
   0.398503871   0.268138322   0.833341473
   0.398428772   0.601465219   0.166743501
   0.398431595   0.601462188   0.499917686
   0.398568261   0.601529695   0.833338823
   0.398484679   0.934825195   0.166681785
   0.398489418   0.934827369   0.499995987
   0.398483069   0.934825783   0.833322204
   0.731898171   0.268074245   0.166630349
   0.731805076   0.268166986   0.500024286
   0.731917841   0.268064881   0.833344616
   0.731844386   0.601527167   0.166664702
   0.731822698   0.601498731   0.499993675
   0.731852029   0.601518527   0.833341621
   0.731466213   0.934943933   0.166967694
   0.731920502   0.934837845   0.499999656
   0.731463060   0.934948230   0.833032446
   0.268542978   0.065037202   0.166973824
   0.268089216   0.065144904   0.499993246
   0.268534009   0.065046795   0.833032433
   0.267367692   0.398612787   0.167597691
   0.267388695   0.398639769   0.499061110
   0.268236464   0.398389464   0.833341125
   0.268029451   0.731863875   0.166737755
   0.268122927   0.731771084   0.499917697
   0.268093895   0.732003979   0.833344682
   0.601509066   0.065185105   0.166678279
   0.601504237   0.065183062   0.499999658
   0.601513176   0.065181237   0.833322070
   0.601503616   0.398493096   0.166655635
   0.601500643   0.398496054   0.500005541
   0.601507691   0.398491555   0.833338826
   0.601528153   0.731855452   0.166662306
   0.601499579   0.731833638   0.499996075
   0.601528501   0.731853945   0.833341621
   0.933332135   0.066641902   0.170226076
   0.935019012   0.064952852   0.500024288
   0.933322663   0.066662684   0.829741465
   0.935526580   0.398767178   0.167550070
   0.935522454   0.398774660   0.499133239
   0.934794269   0.398471768   0.833322220
   0.935006272   0.731393561   0.167042858
   0.934900174   0.731846098   0.499924641
   0.934943557   0.731488517   0.833031986
H107LiMg53
   1.00000000
   13.503244911   0.000042166   0.000000089
   0.000042166   13.503244835   0.000000101
   0.000000059   0.000000068   9.029749383
  Li  Mg  H
  1  53  107
Direct configuration=     3
   0.999992131   0.999990940   0.999993956
   0.000015624   0.000003225   0.328388716
   0.999999447   0.999983416   0.671639761
   0.999918217   0.332926502   0.999607727
   0.997670557   0.330888976   0.333280075
   0.999890761   0.333111752   0.667100699
   0.999938988   0.666908147   0.999965172
   0.999860513   0.667077005   0.333281998
   0.999967560   0.666715690   0.666752878
   0.333010051   0.000020178   0.000004826
   0.333216385   0.999970783   0.333280102
   0.333204532   0.999989922   0.666714928
   0.333228980   0.333261029   0.999962509
   0.333543867   0.333105868   0.333287581
   0.333181437   0.333212603   0.666749154
   0.333150881   0.666687079   0.000054610
   0.333520812   0.666905927   0.333339694
   0.333226084   0.666611677   0.666605809
   0.666993360   0.999990885   0.000002268
   0.666792112   0.000012917   0.333280687
   0.666799465   0.000020144   0.666717313
   0.666750468   0.333231189   0.999974843
   0.666695051   0.333323456   0.333339733
   0.666675810   0.333306582   0.666685709
   0.666697516   0.666691062   0.000004369
   0.666725699   0.666751144   0.333285889
   0.666744837   0.666738457   0.666709751
   0.165166093   0.165082341   0.164514653
   0.166651467   0.166575199   0.500076268
   0.165157109   0.165141114   0.835407129
   0.168636370   0.502036145   0.161458962
   0.168664693   0.502034400   0.505176849
   0.166656564   0.500056124   0.833368731
   0.165101834   0.834907793   0.166203460
   0.166493691   0.833514820   0.499997320
   0.165103353   0.834899834   0.833798027
   0.499974143   0.166632627   0.166623031
   0.499967843   0.166658473   0.500007695
   0.500010667   0.166602020   0.833369286
   0.500008361   0.499999965   0.166678158
   0.500008405   0.499999908   0.499996466
   0.500003213   0.500001216   0.833325396
   0.500013344   0.833413767   0.166629756
   0.500019020   0.833388015   0.500000921
   0.499995517   0.833395935   0.833369335
   0.834892715   0.165097323   0.166286164
   0.833505300   0.166492144   0.499911021
   0.834910231   0.165118025   0.833799289
   0.833386365   0.500061315   0.166549603
   0.833359869   0.500067567   0.500081694
   0.833439161   0.500057002   0.833368889
   0.834933710   0.834874011   0.164581167
   0.833444027   0.833384099   0.500007205
   0.834902671   0.834911028   0.835411569
   0.103434319   0.103430105   0.999990881
   0.101822258   0.101831259   0.334172777
   0.101790543   0.101805296   0.665824500
   0.101472123   0.434786655   0.000049236
   0.101456122   0.434780029   0.666623844
   0.101737811   0.767795415   0.000020856
   0.101553430   0.767851140   0.333634314
   0.101516866   0.767891912   0.666346987
   0.434836344   0.101508323   0.999997038
   0.434832033   0.101491213   0.333326681
   0.434828953   0.101491940   0.666676265
   0.434837673   0.434836588   0.000019593
   0.434792844   0.434868109   0.333331035
   0.434832822   0.434831760   0.666649372
   0.434820145   0.768147060   0.999994038
   0.434851449   0.768185377   0.333328816
   0.434822357   0.768156215   0.666677136
   0.767793327   0.101738176   0.000009201
   0.767881296   0.101508164   0.333632991
   0.767891126   0.101517379   0.666357355
   0.768160676   0.434820399   0.000000405
   0.768194235   0.434853020   0.333328850
   0.768169858   0.434822531   0.666670787
   0.767352334   0.767365343   0.999997077
   0.768243649   0.768259990   0.333141601
   0.768244201   0.768256890   0.666861266
   0.232615346   0.232607360   0.999971322
   0.231559662   0.232073324   0.333141729
   0.231723313   0.231712928   0.666890363
   0.232033585   0.565360607   0.999840969
   0.229338219   0.562672764   0.333327927
   0.232024689   0.565358719   0.666831439
   0.232211865   0.898270676   0.000010046
   0.232114006   0.898500355   0.333632985
   0.232114852   0.898490976   0.666357164
   0.565172894   0.231839136   0.999999092
   0.565175652   0.231830837   0.333328908
   0.565170602   0.231829983   0.666672012
   0.565171452   0.565169002   0.000009639
   0.565185207   0.565173062   0.333330791
   0.565176161   0.565173721   0.666659562
   0.565170435   0.898485564   0.000000757
   0.565171209   0.898495626   0.333326468
   0.565177730   0.898502157   0.666672761
   0.898273726   0.232213775   0.000007137
   0.898387741   0.232006543   0.333629436
   0.898491078   0.232117818   0.666360103
   0.898449148   0.565145206   0.999970577
   0.898829504   0.564988516   0.333326697
   0.898465712   0.565152445   0.666703087
   0.896556647   0.896563336   0.999998264
   0.898197309   0.898207520   0.334174460
   0.898196606   0.898203360   0.665827678
   0.065352563   0.269261038   0.167872837
   0.065459072   0.268814927   0.499096003
   0.065040803   0.268510724   0.833031134
   0.065303220   0.600711710   0.167630026
   0.065296181   0.600712024   0.499046065
   0.065094161   0.601607873   0.833324299
   0.066626938   0.933369708   0.170311315
   0.064956107   0.935040586   0.500005447
   0.066625075   0.933373697   0.829682327
   0.398408453   0.268206185   0.166735553
   0.398432212   0.268228408   0.499925957
   0.398510653   0.268137829   0.833338052
   0.398417344   0.601457695   0.166754801
   0.398418176   0.601456632   0.499905348
   0.398566844   0.601529241   0.833339911
   0.398485140   0.934825004   0.166679803
   0.398488679   0.934829785   0.499995692
   0.398483693   0.934826459   0.833324478
   0.731934352   0.268039151   0.166633039
   0.731807140   0.268165914   0.500023225
   0.731952692   0.268029584   0.833342963
   0.731843310   0.601522597   0.166668760
   0.731821295   0.601497711   0.499993027
   0.731851150   0.601513165   0.833338202
   0.731464531   0.934941370   0.166969886
   0.731919134   0.934840029   0.499999876
   0.731460606   0.934946827   0.833030032
   0.268545674   0.065038461   0.166977000
   0.268091648   0.065141339   0.499992611
   0.268535902   0.065048290   0.833029979
   0.267346071   0.398605222   0.167615885
   0.267367327   0.398628688   0.499046378
   0.268238392   0.398396667   0.833337641
   0.267988421   0.731885822   0.166751740
   0.268115938   0.731759112   0.499905249
   0.268059601   0.732036212   0.833343052
   0.601507590   0.065185432   0.166675791
   0.601503944   0.065180778   0.499999887
   0.601512886   0.065180791   0.833324337
   0.601501981   0.398494311   0.166654267
   0.601501012   0.398495270   0.500005811
   0.601505863   0.398492987   0.833339932
   0.601522692   0.731854711   0.166666013
   0.601497646   0.731832573   0.499995786
   0.601523885   0.731853382   0.833338203
   0.933377112   0.066598631   0.170288589
   0.935046833   0.064926153   0.500023240
   0.933367021   0.066617778   0.829680080
   0.935551033   0.398789563   0.167575455
   0.935549413   0.398795483   0.499105838
   0.934790992   0.398472623   0.833324336
   0.935009610   0.731385886   0.167043623
   0.934908235   0.731838582   0.499925641
   0.934940728   0.731488016   0.833029504
H107LiMg53
   1.00000000
   13.503690883   0.000100871   0.000000312
   0.000100871   13.503689584  -0.000000202
   0.000000208  -0.000000135   9.029453495
  Li  Mg  H
  1  53  107
Direct configuration=     4
   0.999982576   0.999975921   0.999983466
   0.000049575   0.999990228   0.329306279
   0.000005330   0.999965010   0.670749670
   0.999962860   0.333010579   0.999838694
   0.996032975   0.329318352   0.333544787
   0.999858488   0.333132619   0.666620709
   0.999919080   0.666655943   0.000385691
   0.999788768   0.667139571   0.333524876
   0.000022459   0.666525105   0.666094981
   0.333106768   0.000075464   0.999992108
   0.333274842   0.999953877   0.333517223
   0.333240520   0.999967995   0.666489563
   0.333263462   0.333491978   0.000382168
   0.333419102   0.332794020   0.333288816
   0.332801745   0.333027983   0.666327241
   0.333175563   0.667231427   0.000148131
   0.332727434   0.666378237   0.333166229
   0.333378800   0.667030783   0.666686633
   0.666902213   0.999935857   0.999998892
   0.666746314   0.000018921   0.333519053
   0.666770709   0.000042566   0.666482353
   0.666985574   0.332980284   0.999948361
   0.666815620   0.333224476   0.333168057
   0.666786779   0.333180827   0.666884143
   0.666503811   0.666503580   0.999992758
   0.666948166   0.666996757   0.333286730
   0.666961943   0.666962100   0.666720580
   0.164868822   0.165004009   0.165582169
   0.166965311   0.167095816   0.499967411
   0.164917592   0.164835153   0.834464661
   0.170088319   0.503539379   0.159288259
   0.170123919   0.503502196   0.507340652
   0.166348472   0.499803572   0.833387657
   0.165731510   0.834300156   0.166768638
   0.166137098   0.833895112   0.500002240
   0.165746756   0.834319954   0.833229699
   0.499976354   0.166598489   0.166610768
   0.499934907   0.166634192   0.500000367
   0.500044390   0.166544313   0.833389028
   0.500046970   0.499983597   0.166677913
   0.500047200   0.499983457   0.500001458
   0.500073364   0.499993519   0.833320820
   0.500041996   0.833499231   0.166567222
   0.500082456   0.833464201   0.500043478
   0.499977944   0.833435275   0.833389242
   0.834087700   0.165592010   0.166610885
   0.833696052   0.165999147   0.500145872
   0.834233615   0.165737019   0.833232145
   0.833615992   0.500025683   0.166637864
   0.833577940   0.500066352   0.499974429
   0.833448616   0.500080603   0.833388569
   0.835220525   0.835136974   0.165527573
   0.833121475   0.833038428   0.500001572
   0.835164542   0.835207686   0.834471901
   0.103236338   0.103304300   0.000013283
   0.101769343   0.101816840   0.334227300
   0.101715996   0.101802778   0.665730155
   0.101507123   0.434801289   0.999387200
   0.101530071   0.434854161   0.667269204
   0.101873582   0.767646242   0.000093076
   0.101831037   0.767599001   0.333952222
   0.101680733   0.767542348   0.665957137
   0.434782694   0.101474571   0.000008411
   0.434834580   0.101500686   0.333339167
   0.434834313   0.101496988   0.666652326
   0.434761676   0.434812187   0.000087307
   0.434783698   0.434929649   0.333323702
   0.434731545   0.434782120   0.666588955
   0.434839728   0.768126344   0.000024493
   0.434984172   0.768297093   0.333332572
   0.434835361   0.768147635   0.666642933
   0.767755974   0.101931059   0.000033934
   0.767705928   0.101790526   0.333948272
   0.767653513   0.101738214   0.666014462
   0.768239589   0.434871921   0.000029243
   0.768276108   0.434914968   0.333332431
   0.768260306   0.434867701   0.666638569
   0.767035839   0.767049489   0.000007705
   0.768625417   0.768631544   0.332217892
   0.768620492   0.768631767   0.667772812
   0.232929267   0.232921819   0.999959316
   0.230993393   0.231936888   0.332216058
   0.231340008   0.231333210   0.667833866
   0.232946132   0.566233890   0.997404244
   0.227798183   0.561114571   0.333328282
   0.232925986   0.566238692   0.669267259
   0.232270777   0.898098428   0.000036934
   0.232371544   0.898300354   0.333952001
   0.232372311   0.898290499   0.666012054
   0.565097962   0.231814466   0.000008445
   0.565111604   0.231812429   0.333333113
   0.565102460   0.231793377   0.666658343
   0.565161175   0.565158628   0.000036132
   0.565199880   0.565187913   0.333323008
   0.565190843   0.565188348   0.666640864
   0.565234416   0.898529411   0.999996921
   0.565162822   0.898487887   0.333338795
   0.565182329   0.898507493   0.666664273
   0.898132201   0.232296323   0.000128583
   0.896819719   0.230892659   0.333936765
   0.898321470   0.232406808   0.665922353
   0.898480552   0.565193291   0.999955699
   0.899072073   0.564793300   0.333339220
   0.898458532   0.565142541   0.666706092
   0.896745499   0.896741697   0.000011867
   0.898275023   0.898260578   0.334234680
   0.898257952   0.898253945   0.665756944
   0.065817165   0.269936082   0.168600947
   0.065843501   0.269416252   0.498436312
   0.065038433   0.268566861   0.832927007
   0.065083131   0.600161997   0.168034994
   0.065031679   0.600182162   0.498610445
   0.065097815   0.601657959   0.833360950
   0.066144567   0.933843783   0.172112327
   0.064418620   0.935569983   0.500013483
   0.066148204   0.933841669   0.827889854
   0.398372176   0.268328218   0.166796266
   0.398326797   0.268356532   0.499927249
   0.398618897   0.268141548   0.833275569
   0.398163901   0.601331716   0.166975852
   0.398140788   0.601354110   0.499660448
   0.398540997   0.601553498   0.833364721
   0.398478382   0.934832116   0.166647525
   0.398466054   0.934882510   0.499991101
   0.398479825   0.934849036   0.833361269
   0.732561543   0.267426707   0.166672524
   0.731831054   0.268154991   0.500012198
   0.732561100   0.267409429   0.833313888
   0.731814832   0.601453609   0.166744509
   0.731786846   0.601495954   0.499979450
   0.731823399   0.601430896   0.833275870
   0.731351050   0.934929782   0.167070717
   0.731901397   0.934888140   0.500003706
   0.731333076   0.934957705   0.832925273
   0.268676222   0.065026284   0.167097226
   0.268127537   0.065068400   0.499979206
   0.268653006   0.065037974   0.832924484
   0.266812029   0.398477767   0.168114581
   0.266837980   0.398434401   0.498610720
   0.268304413   0.398490466   0.833273903
   0.267248967   0.732243937   0.167025287
   0.267978092   0.731517370   0.499658363
   0.267464396   0.732626796   0.833314278
   0.601495272   0.065181902   0.166635306
   0.601507164   0.065131606   0.500003860
   0.601523470   0.065163100   0.833360927
   0.601499422   0.398488279   0.166622744
   0.601522631   0.398465133   0.500012353
   0.601500814   0.398490797   0.833365044
   0.601439912   0.731831371   0.166732827
   0.601481741   0.731803302   0.499991327
   0.601456078   0.731833275   0.833275874
   0.933858684   0.066143355   0.172099599
   0.935582214   0.064405957   0.500012589
   0.933832607   0.066139155   0.827879522
   0.936143672   0.399231794   0.168208976
   0.936183741   0.399216842   0.498442386
   0.934737080   0.398467321   0.833357961
   0.935114284   0.731152376   0.167135904
   0.935071838   0.731697799   0.499926494
   0.934927919   0.731396157   0.832923248
H107LiMg53
   1.00000000
   13.503768228   0.000112088   0.000000334
   0.000112088   13.503766719  -0.000000262
   0.000000223  -0.000000175   9.029402439
  Li  Mg  H
  1  53  107
Direct configuration=     5
   0.999980891   0.999973861   0.999982532
   0.000053791   0.999989524   0.329324409
   0.000006373   0.999963815   0.670733677
   0.999969302   0.333009854   0.999858172
   0.995759377   0.329052633   0.333559997
   0.999858472   0.333139696   0.666584583
   0.999919990   0.666633337   0.000424494
   0.999777839   0.667149491   0.333540695
   0.000029827   0.666494780   0.666040815
   0.333104270   0.000080571   0.999992073
   0.333282788   0.999951309   0.333532922
   0.333246068   0.999966122   0.666473846
   0.333261536   0.333520726   0.000420591
   0.333404361   0.332750837   0.333280490
   0.332746745   0.333003289   0.666297299
   0.333190980   0.667329305   0.000151521
   0.332623199   0.666314068   0.333151225
   0.333415466   0.667107899   0.666698020
   0.666905332   0.999931491   0.999999294
   0.666745892   0.000025953   0.333534934
   0.666766099   0.000045208   0.666466076
   0.667024544   0.332940705   0.999946478
   0.666834751   0.333208735   0.333153837
   0.666805278   0.333161849   0.666900300
   0.666481355   0.666481182   0.999992806
   0.666977544   0.667029162   0.333278220
   0.666991898   0.666992155   0.666729012
   0.164795155   0.164953226   0.165587767
   0.167001732   0.167154027   0.499957554