Mg28Ni4O32
   1.00000000
   8.440340235   0.000000000   0.000000000
   0.000000000   8.440350295   0.000000000
   0.000000000   0.000000000   8.440342469
  Ni  Mg  O
  4  28  32
Direct configuration=     1
   0.000000000   0.000009099   0.000080281
   0.000000000   0.000009099   0.499919719
   0.000000000   0.249875770   0.250000000
   0.500000000   0.250082690   0.750000000
   0.000000000   0.499912156   0.000050947
   0.000000000   0.499912156   0.499949053
   0.500000000   0.000105085   0.999835798
   0.500000000   0.000105085   0.500164202
   0.500000000   0.499933445   0.999891659
   0.500000000   0.499933445   0.500108341
   0.000000000   0.249780501   0.750000000
   0.000000000   0.750179721   0.250000000
   0.000000000   0.750192296   0.750000000
   0.500000000   0.250011819   0.250000000
   0.500000000   0.749955459   0.250000000
   0.500000000   0.750005292   0.750000000
   0.249706706   0.000057517   0.250000000
   0.249939136   0.000097495   0.750000000
   0.249969887   0.499963408   0.250000000
   0.250085363   0.499892960   0.750000000
   0.750293294   0.000057517   0.250000000
   0.750060864   0.000097495   0.750000000
   0.750030113   0.499963408   0.250000000
   0.749914637   0.499892960   0.750000000
   0.249933765   0.249932977   0.999945054
   0.249933765   0.249932977   0.500054946
   0.249923605   0.750080013   0.999986324
   0.249923605   0.750080013   0.500013676
   0.750066235   0.249932977   0.999945054
   0.750066235   0.249932977   0.500054946
   0.750076395   0.750080013   0.999986324
   0.750076395   0.750080013   0.500013676
   0.250129014   0.249915121   0.250000000
   0.249700066   0.250016208   0.750000000
   0.249931254   0.750008572   0.250000000
   0.250025258   0.749995780   0.750000000
   0.749870986   0.249915121   0.250000000
   0.750299934   0.250016208   0.750000000
   0.750068746   0.750008572   0.250000000
   0.749974742   0.749995780   0.750000000
   0.250119096   0.000019271   0.000058350
   0.250119096   0.000019271   0.499941650
   0.249932542   0.499998539   0.000014591
   0.249932542   0.499998539   0.499985409
   0.749880904   0.000019271   0.000058350
   0.749880904   0.000019271   0.499941650
   0.750067458   0.499998539   0.000014591
   0.750067458   0.499998539   0.499985409
   0.000000000   0.250066655   0.999887937
   0.000000000   0.250066655   0.500112063
   0.000000000   0.749889759   0.000049994
   0.000000000   0.749889759   0.499950006
   0.500000000   0.249907996   0.000352048
   0.500000000   0.249907996   0.499647952
   0.500000000   0.750059879   0.999967954
   0.500000000   0.750059879   0.500032046
   0.000000000   0.000057794   0.250000000
   0.000000000   0.000101304   0.750000000
   0.000000000   0.500075033   0.250000000
   0.000000000   0.499924502   0.750000000
   0.500000000   0.000125018   0.250000000
   0.500000000   0.999782032   0.750000000
   0.500000000   0.499882399   0.250000000
   0.500000000   0.500182896   0.750000000
Mg28Ni4O32
   1.00000000
   8.442278113   0.000000000   0.000000000
   0.000000000   8.442345826  -0.000000000
   0.000000000  -0.000000000   8.442294660
  Ni  Mg  O
  4  28  32
Direct configuration=     2
   0.000000000   0.000057772   0.000458148
   0.000000000   0.000057772   0.499541852
   0.000000000   0.249323803   0.250000000
   0.500000000   0.250465436   0.750000000
   0.000000000   0.499471512   0.000259332
   0.000000000   0.499471512   0.499740668
   0.500000000   0.000625905   0.999115390
   0.500000000   0.000625905   0.500884610
   0.500000000   0.499607876   0.999413343
   0.500000000   0.499607876   0.500586657
   0.000000000   0.248741055   0.750000000
   0.000000000   0.751001638   0.250000000
   0.000000000   0.751076256   0.750000000
   0.500000000   0.249977223   0.250000000
   0.500000000   0.749827853   0.250000000
   0.500000000   0.750070064   0.750000000
   0.248373360   0.000373440   0.250000000
   0.249645800   0.000564995   0.750000000
   0.249818322   0.499761607   0.250000000
   0.250390869   0.499380548   0.750000000
   0.751626640   0.000373440   0.250000000
   0.750354200   0.000564995   0.750000000
   0.750181678   0.499761607   0.250000000
   0.749609131   0.499380548   0.750000000
   0.249602748   0.249601639   0.999716344
   0.249602748   0.249601639   0.500283656
   0.249562274   0.750471747   0.999916092
   0.249562274   0.750471747   0.500083908
   0.750397252   0.249601639   0.999716344
   0.750397252   0.249601639   0.500283656
   0.750437726   0.750471747   0.999916092
   0.750437726   0.750471747   0.500083908
   0.250627602   0.249492151   0.250000000
   0.248288810   0.250062735   0.750000000
   0.249552897   0.750078017   0.250000000
   0.250097276   0.750016383   0.750000000
   0.749372398   0.249492151   0.250000000
   0.751711190   0.250062735   0.750000000
   0.750447103   0.750078017   0.250000000
   0.749902724   0.750016383   0.750000000
   0.250634940   0.000132326   0.000310822
   0.250634940   0.000132326   0.499689178
   0.249635043   0.499960184   0.000076429
   0.249635043   0.499960184   0.499923571
   0.749365060   0.000132326   0.000310822
   0.749365060   0.000132326   0.499689178
   0.750364957   0.499960184   0.000076429
   0.750364957   0.499960184   0.499923571
   0.000000000   0.250320084   0.999395798
   0.000000000   0.250320084   0.500604202
   0.000000000   0.749428712   0.000294662
   0.000000000   0.749428712   0.499705338
   0.500000000   0.249496223   0.001954719
   0.500000000   0.249496223   0.498045281
   0.500000000   0.750318878   0.999820493
   0.500000000   0.750318878   0.500179507
   0.000000000   0.000389240   0.250000000
   0.000000000   0.000558672   0.750000000
   0.000000000   0.500376166   0.250000000
   0.000000000   0.499580237   0.750000000
   0.500000000   0.000668424   0.250000000
   0.500000000   0.998826822   0.750000000
   0.500000000   0.499355988   0.250000000
   0.500000000   0.500983865   0.750000000
Mg28Ni4O32
   1.00000000
   8.442846708   0.000000000   0.000000000
   0.000000000   8.442931476  -0.000000000
   0.000000000  -0.000000000   8.442868561
  Ni  Mg  O
  4  28  32
Direct configuration=     3
   0.000000000   0.000068777   0.000500447
   0.000000000   0.000068777   0.499499553
   0.000000000   0.249291681   0.250000000
   0.500000000   0.250507350   0.750000000
   0.000000000   0.499398645   0.000257088
   0.000000000   0.499398645   0.499742912
   0.500000000   0.000706674   0.999077678
   0.500000000   0.000706674   0.500922322
   0.500000000   0.499559824   0.999388659
   0.500000000   0.499559824   0.500611341
   0.000000000   0.248616031   0.750000000
   0.000000000   0.751071232   0.250000000
   0.000000000   0.751162050   0.750000000
   0.500000000   0.249895925   0.250000000
   0.500000000   0.749883919   0.250000000
   0.500000000   0.750111005   0.750000000
   0.248261664   0.000447265   0.250000000
   0.249606354   0.000626021   0.750000000
   0.249793142   0.499713740   0.250000000
   0.250340769   0.499315563   0.750000000
   0.751738336   0.000447265   0.250000000
   0.750393646   0.000626021   0.750000000
   0.750206858   0.499713740   0.250000000
   0.749659231   0.499315563   0.750000000
   0.249547279   0.249550136   0.999716910
   0.249547279   0.249550136   0.500283090
   0.249519892   0.750529142   0.999903824
   0.249519892   0.750529142   0.500096176
   0.750452721   0.249550136   0.999716910
   0.750452721   0.249550136   0.500283090
   0.750480108   0.750529142   0.999903824
   0.750480108   0.750529142   0.500096176
   0.250586694   0.249424277   0.250000000
   0.248132158   0.250040649   0.750000000
   0.249462193   0.750114341   0.250000000
   0.250061832   0.750055094   0.750000000
   0.749413306   0.249424277   0.250000000
   0.751867842   0.250040649   0.750000000
   0.750537807   0.750114341   0.250000000
   0.749938168   0.750055094   0.750000000
   0.250653770   0.000165884   0.000319802
   0.250653770   0.000165884   0.499680198
   0.249616629   0.499925952   0.000076992
   0.249616629   0.499925952   0.499923008
   0.749346230   0.000165884   0.000319802
   0.749346230   0.000165884   0.499680198
   0.750383371   0.499925952   0.000076992
   0.750383371   0.499925952   0.499923008
   0.000000000   0.250293359   0.999371660
   0.000000000   0.250293359   0.500628340
   0.000000000   0.749427904   0.000329127
   0.000000000   0.749427904   0.499670873
   0.500000000   0.249468546   0.002085752
   0.500000000   0.249468546   0.497914248
   0.500000000   0.750331175   0.999807766
   0.500000000   0.750331175   0.500192234
   0.000000000   0.000481168   0.250000000
   0.000000000   0.000587458   0.750000000
   0.000000000   0.500361463   0.250000000
   0.000000000   0.499550380   0.750000000
   0.500000000   0.000688597   0.250000000
   0.500000000   0.998786017   0.750000000
   0.500000000   0.499320237   0.250000000
   0.500000000   0.501017327   0.750000000
Mg28Ni4O32
   1.00000000
   8.450076356  -0.000000000  -0.000000000
  -0.000000000   8.450377361  -0.000000000
  -0.000000000  -0.000000000   8.450168066
  Ni  Mg  O
  4  28  32
Direct configuration=     4
   0.000000000   0.000192067   0.000863790
   0.000000000   0.000192067   0.499136210
   0.000000000   0.249183517   0.250000000
   0.500000000   0.250877241   0.750000000
   0.000000000   0.498650425   0.000111955
   1.000000000   0.498650425   0.499888045
   0.500000000   0.001513577   0.998970568
   0.500000000   0.001513577   0.501029432
   0.500000000   0.499088962   0.999337160
   0.500000000   0.499088962   0.500662840
   0.000000000   0.247470062   0.750000000
   0.000000000   0.751542328   0.250000000
   0.000000000   0.751844734   0.750000000
   0.500000000   0.248800614   0.250000000
   0.500000000   0.750735092   0.250000000
   0.500000000   0.750631477   0.750000000
   0.247485203   0.001269498   0.250000000
   0.249228960   0.001200649   0.750000000
   0.249537925   0.499178541   0.250000000
   0.249462117   0.498719485   0.750000000
   0.752514797   0.001269498   0.250000000
   0.750771040   0.001200649   0.750000000
   0.750462075   0.499178541   0.250000000
   0.750537883   0.498719485   0.750000000
   0.248962508   0.249032206   0.999857462
   0.248962508   0.249032206   0.500142538
   0.249145913   0.751090815   0.999781095
   0.249145913   0.751090815   0.500218905
   0.751037492   0.249032206   0.999857462
   0.751037492   0.249032206   0.500142538
   0.750854087   0.751090815   0.999781095
   0.750854087   0.751090815   0.500218905
   0.249722776   0.248731827   0.250000000
   0.246804779   0.249700889   0.750000000
   0.248429856   0.750595838   0.250000000
   0.249514443   0.750585443   0.750000000
   0.750277224   0.248731827   0.250000000
   0.753195221   0.249700889   0.750000000
   0.751570144   0.750595838   0.250000000
   0.750485557   0.750585443   0.750000000
   0.250609668   0.000574582   0.000297009
   0.250609668   0.000574582   0.499702991
   0.249516457   0.499458978   0.000047457
   0.249516457   0.499458978   0.499952543
   0.749390332   0.000574582   0.000297009
   0.749390332   0.000574582   0.499702991
   0.750483543   0.499458978   0.000047457
   0.750483543   0.499458978   0.499952543
   0.000000000   0.249757485   0.999326293
   0.000000000   0.249757485   0.500673707
   0.000000000   0.749695021   0.000654690
   0.000000000   0.749695021   0.499345310
   0.500000000   0.249316574   0.002948234
   0.500000000   0.249316574   0.497051766
   0.500000000   0.750370841   0.999723964
   0.500000000   0.750370841   0.500276036
   0.000000000   0.001578483   0.250000000
   0.000000000   0.000696174   0.750000000
   1.000000000   0.499952214   0.250000000
   0.000000000   0.499337294   0.750000000
   0.500000000   0.000650429   0.250000000
   0.500000000   0.998839274   0.750000000
   0.500000000   0.499126940   0.250000000
   0.500000000   0.500973553   0.750000000
Mg28Ni4O32
   1.00000000
   8.454695034  -0.000000000  -0.000000000
  -0.000000000   8.455133179  -0.000000000
  -0.000000000  -0.000000000   8.454831717
  Ni  Mg  O
  4  28  32
Direct configuration=     5
   0.000000000   0.000248501   0.000967132
   0.000000000   0.000248501   0.499032868
   0.000000000   0.249303627   0.250000000
   0.500000000   0.251006061   0.750000000
   0.000000000   0.498339546   0.999978986
   0.000000000   0.498339546   0.500021014
   0.500000000   0.001828080   0.999104457
   0.500000000   0.001828080   0.500895543
   0.500000000   0.498910989   0.999461749
   0.500000000   0.498910989   0.500538251
   0.000000000   0.247055987   0.750000000
   0.000000000   0.751565052   0.250000000
   0.000000000   0.752011091   0.750000000
   0.500000000   0.248182794   0.250000000
   0.500000000   0.751276234   0.250000000
   0.500000000   0.750906598   0.750000000
   0.247395851   0.001632725   0.250000000
   0.249087397   0.001408070   0.750000000
   0.249438914   0.498935698   0.250000000
   0.248845679   0.498519946   0.750000000
   0.752604149   0.001632725   0.250000000
   0.750912603   0.001408070   0.750000000
   0.750561086   0.498935698   0.250000000
   0.751154321   0.498519946   0.750000000
   0.248696217   0.248826117   0.000003834
   0.248696217   0.248826117   0.499996166
   0.249031358   0.751304355   0.999738961
   0.249031358   0.751304355   0.500261039
   0.751303783   0.248826117   0.000003834
   0.751303783   0.248826117   0.499996166
   0.750968642   0.751304355   0.999738961
   0.750968642   0.751304355   0.500261039
   0.249064816   0.248451920   0.250000000
   0.246457116   0.249478930   0.750000000
   0.247936910   0.750890882   0.250000000
   0.249151470   0.750903131   0.750000000
   0.750935184   0.248451920   0.250000000
   0.753542884   0.249478930   0.750000000
   0.752063090   0.750890882   0.250000000
   0.750848530   0.750903131   0.750000000
   0.250429851   0.000796919   0.000211999
   0.250429851   0.000796919   0.499788001
   0.249510190   0.499169291   0.000011370
   0.249510190   0.499169291   0.499988630
   0.749570149   0.000796919   0.000211999
   0.749570149   0.000796919   0.499788001
   0.750489810   0.499169291   0.000011370
   0.750489810   0.499169291   0.499988630
   0.000000000   0.249340330   0.999440355
   0.000000000   0.249340330   0.500559645
   0.000000000   0.750000628   0.000762657
   0.000000000   0.750000628   0.499237343
   0.500000000   0.249331047   0.002971708
   0.500000000   0.249331047   0.497028292
   0.500000000   0.750353186   0.999725858
   0.500000000   0.750353186   0.500274142
   0.000000000   0.002155096   0.250000000
   0.000000000   0.000590239   0.750000000
   1.000000000   0.499574918   0.250000000
   0.000000000   0.499308848   0.750000000
   0.500000000   0.000473642   0.250000000
   0.500000000   0.999247169   0.750000000
   0.500000000   0.499155419   0.250000000
   0.500000000   0.500653278   0.750000000
Mg28Ni4O32
   1.00000000
   8.460056982  -0.000000000  -0.000000000
  -0.000000000   8.460652787  -0.000000000
  -0.000000000  -0.000000000   8.460243923
  Ni  Mg  O
  4  28  32
Direct configuration=     6
   0.000000000   0.000280242   0.000975043
   0.000000000   0.000280242   0.499024957
   0.000000000   0.249555358   0.250000000
   0.500000000   0.251073593   0.750000000
   0.000000000   0.498173186   0.999850388
   0.000000000   0.498173186   0.500149612
   0.500000000   0.001967570   0.999337893
   0.500000000   0.001967570   0.500662107
   0.500000000   0.498836553   0.999690815
   0.500000000   0.498836553   0.500309185
   0.000000000   0.246845758   0.750000000
   0.000000000   0.751387749   0.250000000
   0.000000000   0.752005948   0.750000000
   0.500000000   0.247712006   0.250000000
   0.500000000   0.751755022   0.250000000
   0.500000000   0.751101028   0.750000000
   0.247556652   0.001812177   0.250000000
   0.249023092   0.001492988   0.750000000
   0.249401324   0.498800161   0.250000000
   0.248255551   0.498461962   0.750000000
   0.752443348   0.001812177   0.250000000
   0.750976908   0.001492988   0.750000000
   0.750598676   0.498800161   0.250000000
   0.751744449   0.498461962   0.750000000
   0.248510968   0.248728272   0.000165496
   0.248510968   0.248728272   0.499834504
   0.249009953   0.751396226   0.999735731
   0.249009953   0.751396226   0.500264269
   0.751489032   0.248728272   0.000165496
   0.751489032   0.248728272   0.499834504
   0.750990047   0.751396226   0.999735731
   0.750990047   0.751396226   0.500264269
   0.248419377   0.248322037   0.250000000
   0.246501788   0.249274035   0.750000000
   0.247619656   0.751175004   0.250000000
   0.248810250   0.751179572   0.750000000
   0.751580623   0.248322037   0.250000000
   0.753498212   0.249274035   0.750000000
   0.752380344   0.751175004   0.250000000
   0.751189750   0.751179572   0.750000000
   0.250169280   0.000980282   0.000094426
   0.250169280   0.000980282   0.499905574
   0.249501778   0.498893884   0.999969764
   0.249501778   0.498893884   0.500030236
   0.749830720   0.000980282   0.000094426
   0.749830720   0.000980282   0.499905574
   0.750498222   0.498893884   0.999969764
   0.750498222   0.498893884   0.500030236
   0.000000000   0.248893638   0.999624902
   0.000000000   0.248893638   0.500375098
   0.000000000   0.750371918   0.000781948
   0.000000000   0.750371918   0.499218052
   0.500000000   0.249399006   0.002631888
   0.500000000   0.249399006   0.497368112
   0.500000000   0.750346974   0.999769522
   0.500000000   0.750346974   0.500230478
   0.000000000   0.002608348   0.250000000
   0.000000000   0.000343719   0.750000000
   1.000000000   0.499116718   0.250000000
   0.000000000   0.499348533   0.750000000
   0.500000000   0.000229143   0.250000000
   0.500000000   0.999963539   0.750000000
   0.500000000   0.499271077   0.250000000
   0.500000000   0.500113752   0.750000000
Mg28Ni4O32
   1.00000000
   8.465540806   0.000000000  -0.000000000
   0.000000000   8.466296057  -0.000000000
  -0.000000000  -0.000000000   8.465775493
  Ni  Mg  O
  4  28  32
Direct configuration=     7
   0.000000000   0.000275528   0.000915992
   0.000000000   0.000275528   0.499084008
   0.000000000   0.249806247   0.250000000
   0.500000000   0.251100851   0.750000000
   0.000000000   0.498180187   0.999803519
   0.000000000   0.498180187   0.500196481
   0.500000000   0.001918046   0.999508784
   0.500000000   0.001918046   0.500491216
   0.500000000   0.498867063   0.999907687
   0.500000000   0.498867063   0.500092313
   0.000000000   0.246797041   0.750000000
   0.000000000   0.751132265   0.250000000
   0.000000000   0.751916976   0.750000000
   0.500000000   0.247586858   0.250000000
   0.500000000   0.751976602   0.250000000
   0.500000000   0.751137693   0.750000000
   0.247780144   0.001738439   0.250000000
   0.249037466   0.001465040   0.750000000
   0.249434129   0.498819700   0.250000000
   0.247940513   0.498527035   0.750000000
   0.752219856   0.001738439   0.250000000
   0.750962534   0.001465040   0.750000000
   0.750565871   0.498819700   0.250000000
   0.752059487   0.498527035   0.750000000
   0.248440416   0.248751353   0.000257348
   0.248440416   0.248751353   0.499742652
   0.249058828   0.751359926   0.999773720
   0.249058828   0.751359926   0.500226280
   0.751559584   0.248751353   0.000257348
   0.751559584   0.248751353   0.499742652
   0.750941172   0.751359926   0.999773720
   0.750941172   0.751359926   0.500226280
   0.248090114   0.248371717   0.250000000
   0.246827904   0.249168152   0.750000000
   0.247583176   0.751358770   0.250000000
   0.248633844   0.751309799   0.750000000
   0.751909886   0.248371717   0.250000000
   0.753172096   0.249168152   0.750000000
   0.752416824   0.751358770   0.250000000
   0.751366156   0.751309799   0.750000000
   0.249968245   0.001066505   0.000013621
   0.249968245   0.001066505   0.499986379
   0.249439395   0.498726213   0.999947770
   0.249439395   0.498726213   0.500052230
   0.750031755   0.001066505   0.000013621
   0.750031755   0.001066505   0.499986379
   0.750560605   0.498726213   0.999947770
   0.750560605   0.498726213   0.500052230
   0.000000000   0.248589850   0.999755095
   0.000000000   0.248589850   0.500244905
   0.000000000   0.750632489   0.000721284
   0.000000000   0.750632489   0.499278716
   0.500000000   0.249450992   0.002178289
   0.500000000   0.249450992   0.497821711
   0.500000000   0.750400574   0.999825887
   0.500000000   0.750400574   0.500174113
   0.000000000   0.002801281   0.250000000
   0.000000000   0.000062866   0.750000000
   0.000000000   0.498752441   0.250000000
   0.000000000   0.499407172   0.750000000
   0.500000000   0.000069392   0.250000000
   0.500000000   0.000715934   0.750000000
   0.500000000   0.499387270   0.250000000
   0.500000000   0.499586363   0.750000000
Mg28Ni4O32
   1.00000000
   8.475125120   0.000000000  -0.000000000
   0.000000000   8.476157271  -0.000000000
  -0.000000000  -0.000000000   8.475438208
  Ni  Mg  O
  4  28  32
Direct configuration=     8
   0.000000000   0.000227940   0.000791531
   0.000000000   0.000227940   0.499208469
   0.000000000   0.250105751   0.250000000
   0.500000000   0.251137205   0.750000000
   0.000000000   0.498350870   0.999854882
   0.000000000   0.498350870   0.500145118
   0.500000000   0.001682815   0.999604223
   0.500000000   0.001682815   0.500395777
   0.500000000   0.498994681   0.000159427
   0.500000000   0.498994681   0.499840573
   0.000000000   0.246797073   0.750000000
   0.000000000   0.750746748   0.250000000
   0.000000000   0.751777244   0.750000000
   0.500000000   0.247820949   0.250000000
   0.500000000   0.751985718   0.250000000
   0.500000000   0.751008656   0.750000000
   0.248041300   0.001358991   0.250000000
   0.249129113   0.001341171   0.750000000
   0.249552305   0.499016019   0.250000000
   0.247841211   0.498714603   0.750000000
   0.751958700   0.001358991   0.250000000
   0.750870887   0.001341171   0.750000000
   0.750447695   0.499016019   0.250000000
   0.752158789   0.498714603   0.750000000
   0.248442904   0.248893154   0.000282783
   0.248442904   0.248893154   0.499717217
   0.249173443   0.751193227   0.999870576
   0.249173443   0.751193227   0.500129424
   0.751557096   0.248893154   0.000282783
   0.751557096   0.248893154   0.499717217
   0.750826557   0.751193227   0.999870576
   0.750826557   0.751193227   0.500129424
   0.248057829   0.248627570   0.250000000
   0.247498122   0.249141101   0.750000000
   0.247837616   0.751502363   0.250000000
   0.248608585   0.751316923   0.750000000
   0.751942171   0.248627570   0.250000000
   0.752501878   0.249141101   0.750000000
   0.752162384   0.751502363   0.250000000
   0.751391415   0.751316923   0.750000000
   0.249796571   0.001078922   0.999967662
   0.249796571   0.001078922   0.500032338
   0.249242985   0.498619142   0.999952367
   0.249242985   0.498619142   0.500047633
   0.750203429   0.001078922   0.999967662
   0.750203429   0.001078922   0.500032338
   0.750757015   0.498619142   0.999952367
   0.750757015   0.498619142   0.500047633
   0.000000000   0.248335015   0.999813284
   0.000000000   0.248335015   0.500186716
   0.000000000   0.750824824   0.000571560
   0.000000000   0.750824824   0.499428440
   0.500000000   0.249471973   0.001547734
   0.500000000   0.249471973   0.498452266
   0.500000000   0.750578159   0.999897920
   0.500000000   0.750578159   0.500102080
   0.000000000   0.002796894   0.250000000
   0.000000000   0.999652364   0.750000000
   0.000000000   0.498372368   0.250000000
   0.000000000   0.499473239   0.750000000
   0.500000000   0.000005415   0.250000000
   0.500000000   0.001778452   0.750000000
   0.500000000   0.499516342   0.250000000
   0.500000000   0.498917772   0.750000000
Mg28Ni4O32
   1.00000000
   8.486298681   0.000000000  -0.000000000
   0.000000000   8.487653117  -0.000000000
  -0.000000000  -0.000000000   8.486698440
  Ni  Mg  O
  4  28  32
Direct configuration=     9
   0.000000000   0.000141036   0.000666247
   0.000000000   0.000141036   0.499333753
   0.000000000   0.250225775   0.250000000
   0.500000000   0.251179224   0.750000000
   0.000000000   0.498657935   0.000041253
   0.000000000   0.498657935   0.499958747
   0.500000000   0.001339027   0.999468725
   0.500000000   0.001339027   0.500531275
   0.500000000   0.499169490   0.000255437
   0.500000000   0.499169490   0.499744563
   0.000000000   0.246840449   0.750000000
   0.000000000   0.750459078   0.250000000
   0.000000000   0.751678732   0.750000000
   0.500000000   0.248504070   0.250000000
   0.500000000   0.751627189   0.250000000
   0.500000000   0.750689600   0.750000000
   0.248126482   0.000755827   0.250000000
   0.249287373   0.001164234   0.750000000
   0.249723005   0.499363620   0.250000000
   0.248206071   0.498950817   0.750000000
   0.751873518   0.000755827   0.250000000
   0.750712627   0.001164234   0.750000000
   0.750276995   0.499363620   0.250000000
   0.751793929   0.498950817   0.750000000
   0.248568211   0.249117884   0.000164588
   0.248568211   0.249117884   0.499835412
   0.249298292   0.750939943   0.999989228
   0.249298292   0.750939943   0.500010772
   0.751431789   0.249117884   0.000164588
   0.751431789   0.249117884   0.499835412
   0.750701708   0.750939943   0.999989228
   0.750701708   0.750939943   0.500010772
   0.248608541   0.249047523   0.250000000
   0.248201634   0.249281339   0.750000000
   0.248403049   0.751442589   0.250000000
   0.248910999   0.751089329   0.750000000
   0.751391459   0.249047523   0.250000000
   0.751798366   0.249281339   0.750000000
   0.751596951   0.751442589   0.250000000
   0.751089001   0.751089329   0.750000000
   0.249821104   0.000940839   0.000027922
   0.249821104   0.000940839   0.499972078
   0.248950622   0.498723089   0.000010935
   0.248950622   0.498723089   0.499989065
   0.750178896   0.000940839   0.000027922
   0.750178896   0.000940839   0.499972078
   0.751049378   0.498723089   0.000010935
   0.751049378   0.498723089   0.499989065
   0.000000000   0.248362219   0.999665084
   0.000000000   0.248362219   0.500334916
   0.000000000   0.750720175   0.000405876
   0.000000000   0.750720175   0.499594124
   0.500000000   0.249426420   0.001157569
   0.500000000   0.249426420   0.498842431
   0.500000000   0.750835775   0.999919847
   0.500000000   0.750835775   0.500080153
   0.000000000   0.002441907   0.250000000
   0.000000000   0.999342748   0.750000000
   0.000000000   0.498287999   0.250000000
   0.000000000   0.499481448   0.750000000
   0.500000000   0.000187855   0.250000000
   0.500000000   0.002532200   0.750000000
   0.500000000   0.499571221   0.250000000
   0.500000000   0.498568774   0.750000000
Mg28Ni4O32
   1.00000000
   8.494365245   0.000000000  -0.000000000
   0.000000000   8.495953838  -0.000000000
  -0.000000000  -0.000000000   8.494823842
  Ni  Mg  O
  4  28  32
Direct configuration=     10
   0.000000000   0.000055878   0.000611151
   0.000000000   0.000055878   0.499388849
   0.000000000   0.250059009   0.250000000
   0.500000000   0.251190655   0.750000000
   0.000000000   0.498945572   0.000256846
   0.000000000   0.498945572   0.499743154
   0.500000000   0.001083291   0.999171288
   0.500000000   0.001083291   0.500828712
   0.500000000   0.499291271   0.000110769
   0.500000000   0.499291271   0.499889231
   0.000000000   0.246950550   0.750000000
   0.000000000   0.750444580   0.250000000
   0.000000000   0.751644340   0.750000000
   0.500000000   0.249295950   0.250000000
   0.500000000   0.751076408   0.250000000
   0.500000000   0.750338362   0.750000000
   0.248007840   0.000265639   0.250000000
   0.249451990   0.001017994   0.750000000
   0.249852273   0.499679354   0.250000000
   0.248888270   0.499111053   0.750000000
   0.751992160   0.000265639   0.250000000
   0.750548010   0.001017994   0.750000000
   0.750147727   0.499679354   0.250000000
   0.751111730   0.499111053   0.750000000
   0.248786727   0.249309382   0.999958643
   0.248786727   0.249309382   0.500041357
   0.249367838   0.750727326   0.000054845
   0.249367838   0.750727326   0.499945155
   0.751213273   0.249309382   0.999958643
   0.751213273   0.249309382   0.500041357
   0.750632162   0.750727326   0.000054845
   0.750632162   0.750727326   0.499945155
   0.249513322   0.249431095   0.250000000
   0.248544043   0.249541483   0.750000000
   0.249008772   0.751141964   0.250000000
   0.249459217   0.750707474   0.750000000
   0.750486678   0.249431095   0.250000000
   0.751455957   0.249541483   0.750000000
   0.750991228   0.751141964   0.250000000
   0.750540783   0.750707474   0.750000000
   0.250040530   0.000685705   0.000169006
   0.250040530   0.000685705   0.499830994
   0.248744625   0.499045292   0.000103215
   0.248744625   0.499045292   0.499896785
   0.749959470   0.000685705   0.000169006
   0.749959470   0.000685705   0.499830994
   0.751255375   0.499045292   0.000103215
   0.751255375   0.499045292   0.499896785
   0.000000000   0.248694831   0.999363820
   0.000000000   0.248694831   0.500636180
   0.000000000   0.750326078   0.000335028
   0.000000000   0.750326078   0.499664972
   0.500000000   0.249370280   0.001257015
   0.500000000   0.249370280   0.498742985
   0.500000000   0.751000401   0.999852831
   0.500000000   0.751000401   0.500147169
   0.000000000   0.001848611   0.250000000
   0.000000000   0.999331821   0.750000000
   0.000000000   0.498625875   0.250000000
   0.000000000   0.499420253   0.750000000
   0.500000000   0.000541200   0.250000000
   0.500000000   0.002455874   0.750000000
   0.500000000   0.499546474   0.250000000
   0.500000000   0.498831906   0.750000000
Mg28Ni4O32
   1.00000000
   8.496794709   0.000000000  -0.000000000
   0.000000000   8.498457372  -0.000000000
  -0.000000000  -0.000000000   8.497268480
  Ni  Mg  O
  4  28  32
Direct configuration=     11
   0.000000000   0.000017275   0.000626081
   0.000000000   0.000017275   0.499373919
   0.000000000   0.249792799   0.250000000
   0.500000000   0.251146092   0.750000000