H107LiMg53
   1.00000000
   13.503018468  -0.000000349  -0.000001412
  -0.000000349   13.503018468   0.000001412
  -0.000000944   0.000000944   9.029980559
  Li  Mg  H
  1  53  107
Direct configuration=     1
   0.999878213   0.000121787   0.999711780
   0.999780448   0.000219551   0.333423933
   0.999990554   0.000009445   0.667091755
   0.999999532   0.333307463   0.000000203
   0.999998100   0.333324058   0.333325733
   0.999997704   0.333321866   0.666674251
   0.999989670   0.666684053   0.999984974
   0.999991447   0.666668334   0.333341466
   0.999996081   0.666679995   0.666673345
   0.333315946   0.000010329   0.999984974
   0.333331666   0.000008552   0.333341466
   0.333320004   0.000003919   0.666673345
   0.333327568   0.333327639   0.999998970
   0.333327427   0.333327383   0.333329422
   0.333329276   0.333329673   0.666671717
   0.333326479   0.666673522   0.000012528
   0.333329682   0.666670318   0.333322602
   0.333331708   0.666668292   0.666664041
   0.666692537   0.000000468   0.000000203
   0.666675941   0.000001899   0.333325732
   0.666678133   0.000002295   0.666674252
   0.666672338   0.333327662   0.000000297
   0.666666972   0.333333029   0.333335008
   0.666668063   0.333331937   0.666664681
   0.666672361   0.666672432   0.999998970
   0.666672617   0.666672573   0.333329422
   0.666670327   0.666670724   0.666671717
   0.166559714   0.166584205   0.166484879
   0.166666632   0.166656119   0.500016584
   0.166544080   0.166533662   0.833499175
   0.166661698   0.499999657   0.166663818
   0.166664435   0.499998557   0.500002367
   0.166662339   0.499998195   0.833333835
   0.166843673   0.833156327   0.166619662
   0.166666358   0.833333642   0.500050914
   0.166542263   0.833457737   0.833324030
   0.500001917   0.166663277   0.166664204
   0.499999621   0.166664406   0.499999403
   0.499999778   0.166662114   0.833336409
   0.500000291   0.499999709   0.166667625
   0.499999882   0.500000118   0.499999846
   0.499999907   0.500000093   0.833332529
   0.500000343   0.833338302   0.166663818
   0.500001443   0.833335565   0.500002366
   0.500001805   0.833337660   0.833333835
   0.833436923   0.166563077   0.166622959
   0.833351993   0.166648007   0.500002413
   0.833469322   0.166530678   0.833372175
   0.833336723   0.499998083   0.166664204
   0.833335594   0.500000379   0.499999404
   0.833337886   0.500000222   0.833336408
   0.833415795   0.833440286   0.166484879
   0.833343882   0.833333368   0.500016584
   0.833466338   0.833455920   0.833499175
   0.101585950   0.101511102   0.000096350
   0.101432539   0.101366330   0.333299486
   0.101472255   0.101472185   0.666597107
   0.101440760   0.434773647   0.999999759
   0.101438824   0.434772081   0.333332803
   0.101438816   0.434772137   0.666667466
   0.101433380   0.768154841   0.000094898
   0.101415303   0.768164318   0.333257061
   0.101441882   0.768082946   0.666646026
   0.434774215   0.101440306   0.000000316
   0.434772664   0.101438532   0.333332309
   0.434772077   0.101438124   0.666667417
   0.434772022   0.434772074   0.000000094
   0.434771774   0.434771813   0.333332779
   0.434772006   0.434772040   0.666667124
   0.434774911   0.768105095   0.999998081
   0.434775131   0.768105810   0.333334618
   0.434773069   0.768105205   0.666667327
   0.768075162   0.101457146   0.000005027
   0.768087211   0.101437383   0.333350876
   0.768078460   0.101440193   0.666644832
   0.768105114   0.434772605   0.000000294
   0.768105858   0.434772937   0.333332229
   0.768105917   0.434772689   0.666667472
   0.768046021   0.768045804   0.000007519
   0.768114642   0.768114070   0.333317954
   0.768107407   0.768109208   0.666674777
   0.231954195   0.231953979   0.000007519
   0.231885930   0.231885358   0.333317954
   0.231890792   0.231892593   0.666674777
   0.231894905   0.565225089   0.999998081
   0.231894190   0.565224869   0.333334618
   0.231894795   0.565226931   0.666667327
   0.231845159   0.898566620   0.000094898
   0.231835683   0.898584698   0.333257061
   0.231917054   0.898558118   0.666646026
   0.565227395   0.231894886   0.000000294
   0.565227063   0.231894142   0.333332229
   0.565227311   0.231894083   0.666667472
   0.565227926   0.565227979   0.000000094
   0.565228187   0.565228227   0.333332779
   0.565227960   0.565227994   0.666667124
   0.565226354   0.898559241   0.999999759
   0.565227920   0.898561177   0.333332803
   0.565227863   0.898561185   0.666667466
   0.898542855   0.231924839   0.000005027
   0.898562618   0.231912790   0.333350876
   0.898559808   0.231921540   0.666644832
   0.898559694   0.565225785   0.000000316
   0.898561468   0.565227336   0.333332309
   0.898561877   0.565227924   0.666667417
   0.898488899   0.898414050   0.000096350
   0.898633671   0.898567462   0.333299487
   0.898527816   0.898527746   0.666597106
   0.065218399   0.268134017   0.166693035
   0.065226267   0.268100863   0.499999570
   0.065217903   0.268138376   0.833307779
   0.065225996   0.601441065   0.166667798
   0.065228948   0.601438082   0.500000443
   0.065228936   0.601438604   0.833331788
   0.065217267   0.934782733   0.499963070
   0.065349620   0.934650380   0.833105611
   0.398559635   0.268104644   0.166666213
   0.398562168   0.268105916   0.500000217
   0.398559559   0.268104263   0.833333557
   0.398561524   0.601438476   0.166666494
   0.398560480   0.601439520   0.499999429
   0.398560008   0.601439992   0.833334070
   0.398558935   0.934774004   0.166667798
   0.398561918   0.934771052   0.500000443
   0.398561396   0.934771064   0.833331789
   0.731899072   0.268100928   0.166666923
   0.731895165   0.268104835   0.500000719
   0.731899286   0.268100714   0.833332618
   0.731895356   0.601440365   0.166666213
   0.731894084   0.601437832   0.500000217
   0.731895737   0.601440441   0.833333557
   0.731865983   0.934781601   0.166693035
   0.731899136   0.934773733   0.499999570
   0.731861624   0.934782097   0.833307779
   0.268110101   0.065203694   0.166692590
   0.268103198   0.065225683   0.500002083
   0.268140953   0.065217372   0.833305235
   0.268103667   0.398559966   0.166666152
   0.268105396   0.398562282   0.500000068
   0.268103647   0.398559678   0.833333788
   0.268088973   0.731911027   0.166668594
   0.268105232   0.731894768   0.500001795
   0.268099903   0.731900097   0.833331903
   0.601438553   0.065228393   0.166668479
   0.601439175   0.065228363   0.499999497
   0.601439274   0.065228493   0.833331975
   0.601439797   0.398560203   0.166666589
   0.601438965   0.398561035   0.499999918
   0.601439472   0.398560528   0.833333491
   0.601440034   0.731896333   0.166666152
   0.601437718   0.731894604   0.500000068
   0.601440322   0.731896353   0.833333788
   0.934887412   0.065112588   0.166989922
   0.934781049   0.065218951   0.499984029
   0.934667570   0.065332430   0.833083000
   0.934771607   0.398561447   0.166668479
   0.934771637   0.398560825   0.499999497
   0.934771507   0.398560726   0.833331975
   0.934796306   0.731889898   0.166692591
   0.934774317   0.731896802   0.500002083
   0.934782628   0.731859047   0.833305235
H107LiMg53
   1.00000000
   13.503272823  -0.000006188  -0.000020093
  -0.000006188   13.503272823   0.000020093
  -0.000013437   0.000013437   9.029718124
  Li  Mg  H
  1  53  107
Direct configuration=     2
   0.998246948   0.001753040   0.995912792
   0.996950757   0.003049242   0.334771361
   0.999889964   0.000110015   0.672339380
   0.999999216   0.333001563   0.000001007
   0.999974248   0.333220084   0.333253260
   0.999968037   0.333190913   0.666748753
   0.999862252   0.666906146   0.999808536
   0.999889788   0.666698839   0.333453120
   0.999945065   0.666836535   0.666735549
   0.333093880   0.000137766   0.999808557
   0.333301173   0.000110228   0.333453122
   0.333163488   0.000054940   0.666735540
   0.333273857   0.333274129   0.999986609
   0.333246688   0.333245321   0.333285432
   0.333271068   0.333276460   0.666729508
   0.333242912   0.666757104   0.000144730
   0.333291312   0.666708676   0.333206065
   0.333311842   0.666688150   0.666638741
   0.666998467   0.000000816   0.000001035
   0.666779926   0.000025752   0.333253260
   0.666809065   0.000031953   0.666748694
   0.666752158   0.333247858   0.000001444
   0.666671818   0.333328173   0.333352134
   0.666689012   0.333311018   0.666646412
   0.666725885   0.666726148   0.999986578
   0.666754658   0.666753278   0.333285432
   0.666723557   0.666728916   0.666729514
   0.165214208   0.165542543   0.164270377
   0.166676936   0.166526953   0.500183528
   0.164984005   0.164836520   0.835557520
   0.166591011   0.499994355   0.166623343
   0.166630715   0.499977028   0.500034546
   0.166601744   0.499973613   0.833342350
   0.169139679   0.830860341   0.166067299
   0.166636033   0.833363983   0.500659130
   0.165024034   0.834975968   0.833200618
   0.500026505   0.166617640   0.166628058
   0.499993974   0.166631331   0.499993441
   0.499998226   0.166599987   0.833378725
   0.500006702   0.499993294   0.166674999
   0.499998513   0.500001497   0.499998529
   0.499999051   0.500000962   0.833326457
   0.500005636   0.833408986   0.166623354
   0.500022977   0.833369315   0.500034544
   0.500026403   0.833398273   0.833342344
   0.834774437   0.165225568   0.166113889
   0.833590421   0.166409585   0.500029705
   0.835125488   0.164874517   0.833820252
   0.833382372   0.499973478   0.166628048
   0.833368674   0.500006022   0.499993447
   0.833400033   0.500001773   0.833378722
   0.834457432   0.834785802   0.164270374
   0.833473069   0.833323072   0.500183521
   0.835163468   0.835015986   0.835557522
   0.103493166   0.102435891   0.001312492
   0.101450019   0.100501917   0.332857013
   0.101952105   0.101952950   0.665725426
   0.101533718   0.434851403   0.999996719
   0.101510771   0.434834732   0.333331273
   0.101510264   0.434835049   0.666672418
   0.101411422   0.768866733   0.001318760
   0.101170720   0.769001119   0.332265988
   0.101563180   0.767852044   0.666369195
   0.434862768   0.101530749   0.000004548
   0.434845961   0.101509669   0.333324297
   0.434835560   0.101501548   0.666671705
   0.434833985   0.434833928   0.000000917
   0.434830485   0.434830167   0.333329802
   0.434834269   0.434834487   0.666669244
   0.434873795   0.768168504   0.999977335
   0.434876380   0.768178981   0.333352172
   0.434851693   0.768171148   0.666670884
   0.767779928   0.101764251   0.000087421
   0.767933888   0.101497397   0.333571201
   0.767801493   0.101543401   0.666351377
   0.768170030   0.434846428   0.000004363
   0.768180775   0.434850185   0.333322895
   0.768181256   0.434847505   0.666672705
   0.767362946   0.767361345   0.000093216
   0.768333461   0.768325945   0.333072011
   0.768221933   0.768246629   0.666837682
   0.232638654   0.232637051   0.000093223
   0.231674083   0.231666568   0.333072016
   0.231753375   0.231778053   0.666837670
   0.231831476   0.565126198   0.999977326
   0.231821013   0.565123610   0.333352177
   0.231828827   0.565148285   0.666670891
   0.231133262   0.898588566   0.001318764
   0.230998862   0.898829256   0.332265983
   0.232147938   0.898436801   0.666369191
   0.565153564   0.231829960   0.000004361
   0.565149811   0.231819226   0.333322892
   0.565152462   0.231818717   0.666672702
   0.565166070   0.565166007   0.000000909
   0.565169849   0.565169517   0.333329805
   0.565165511   0.565165727   0.666669249
   0.565148582   0.898466266   0.999996711
   0.565165276   0.898489228   0.333331276
   0.565164971   0.898489755   0.666672419
   0.898235745   0.232220063   0.000087414
   0.898502596   0.232066113   0.333571196
   0.898456587   0.232198498   0.666351379
   0.898469230   0.565137208   0.000004538
   0.898490353   0.565154050   0.333324300
   0.898498462   0.565164441   0.666671710
   0.897564116   0.896506856   0.001312499
   0.899498064   0.898549962   0.332857019
   0.898047068   0.898047896   0.665725413
   0.065032402   0.268567395   0.167022237
   0.065141546   0.268105951   0.499988489
   0.065035364   0.268615018   0.832995793
   0.065138665   0.601544339   0.166675044
   0.065175576   0.601507329   0.500004336
   0.065178920   0.601511811   0.833320776
   0.064971564   0.935028436   0.499539895
   0.066763647   0.933236359   0.830191072
   0.398472414   0.268163478   0.166659989
   0.398503295   0.268181732   0.500001909
   0.398471464   0.268158449   0.833337988
   0.398480606   0.601519390   0.166659533
   0.398476574   0.601523432   0.499989091
   0.398473328   0.601526676   0.833350911
   0.398455656   0.934861334   0.166675039
   0.398492666   0.934824413   0.500004344
   0.398488179   0.934821082   0.833320771
   0.731926147   0.268073847   0.166668562
   0.731837960   0.268162041   0.500008212
   0.731939017   0.268060982   0.833326737
   0.731836512   0.601527588   0.166659988
   0.731818241   0.601496730   0.500001911
   0.731841526   0.601528556   0.833337994
   0.731432604   0.934967590   0.167022239
   0.731894028   0.934858478   0.499988490
   0.731385002   0.934964625   0.832995794
   0.268231750   0.064830894   0.167018907
   0.268144981   0.065129799   0.500027900
   0.268659206   0.065023629   0.832952759
   0.268149093   0.398476701   0.166659093
   0.268174693   0.398504287   0.500000148
   0.268150271   0.398472536   0.833340883
   0.268025297   0.731974708   0.166690816
   0.268167185   0.731832826   0.500014688
   0.268049218   0.731950782   0.833325474
   0.601508232   0.065170048   0.166684620
   0.601517422   0.065167404   0.499991740
   0.601516853   0.065172366   0.833323165
   0.601523693   0.398476312   0.166660435
   0.601514183   0.398485823   0.499999027
   0.601517850   0.398482154   0.833340460
   0.601523289   0.731850912   0.166659089
   0.601495730   0.731825299   0.500000149
   0.601527475   0.731849715   0.833340903
   0.936442525   0.063557470   0.171091463
   0.934937831   0.065062172   0.499936830
   0.933450891   0.066549111   0.829870910
   0.934829940   0.398491768   0.166684619
   0.934832586   0.398482595   0.499991711
   0.934827631   0.398483156   0.833323172
   0.935169131   0.731768227   0.167018922
   0.934870191   0.731855025   0.500027907
   0.934976384   0.731340779   0.832952757
H107LiMg53
   1.00000000
   13.503288015  -0.000007898  -0.000020428
  -0.000007898   13.503288015   0.000020428
  -0.000013661   0.000013661   9.029709199
  Li  Mg  H
  1  53  107
Direct configuration=     3
   0.998197003   0.001802985   0.995867338
   0.996983424   0.003016568   0.334940184
   0.999910609   0.000089371   0.672105376
   0.000003387   0.333022530   0.999999541
   0.999974646   0.333230674   0.333272091
   0.999967991   0.333202538   0.666731775
   0.999867586   0.666907159   0.999824742
   0.999897541   0.666710657   0.333454279
   0.999945180   0.666825859   0.666718156
   0.333092863   0.000132431   0.999824759
   0.333289353   0.000102473   0.333454282
   0.333174163   0.000054825   0.666718147
   0.333289093   0.333288699   0.999987514
   0.333238507   0.333236446   0.333287059
   0.333261727   0.333266906   0.666726924
   0.333244562   0.666755452   0.000116439
   0.333296664   0.666703328   0.333223655
   0.333308453   0.666691539   0.666650378
   0.666977495   0.999996639   0.999999564
   0.666769334   0.000025352   0.333272091
   0.666797441   0.000031998   0.666731724
   0.666762420   0.333237595   0.999999206
   0.666676769   0.333323225   0.333343582
   0.666695826   0.333304198   0.666657336
   0.666711311   0.666710912   0.999987485
   0.666763533   0.666761460   0.333287058
   0.666733108   0.666738260   0.666726927
   0.165259995   0.165577907   0.164417773
   0.166690530   0.166537169   0.500142005
   0.165015876   0.164866328   0.835461746
   0.166589149   0.499993549   0.166623933
   0.166630078   0.499974614   0.500035729
   0.166601398   0.499972709   0.833340575
   0.169132085   0.830867934   0.166121409
   0.166614985   0.833385029   0.500611811
   0.165121254   0.834878746   0.833198448
   0.500026213   0.166619727   0.166628073
   0.499993235   0.166631658   0.499994961
   0.499999340   0.166600953   0.833377199
   0.500008324   0.499991673   0.166674727
   0.499998700   0.500001309   0.499999011
   0.499999413   0.500000599   0.833326240
   0.500006442   0.833410850   0.166623945
   0.500025390   0.833369949   0.500035727
   0.500027307   0.833398616   0.833340567
   0.834771087   0.165228920   0.166167769
   0.833582235   0.166417771   0.500026407
   0.835018726   0.164981279   0.833773310
   0.833380282   0.499973770   0.166628065
   0.833368345   0.500006761   0.499994963
   0.833399065   0.500000659   0.833377196
   0.834422073   0.834740011   0.164417770
   0.833462851   0.833309478   0.500142000
   0.835133661   0.834984116   0.835461748
   0.103421674   0.102350578   0.001280364
   0.101471526   0.100499942   0.332852399
   0.101926594   0.101928851   0.665754677
   0.101527383   0.434844451   0.999996721
   0.101507789   0.434832047   0.333332397
   0.101506839   0.434831884   0.666671313
   0.101386372   0.768868610   0.001312895
   0.101156936   0.769004594   0.332259878
   0.101568957   0.767841952   0.666363168
   0.434858257   0.101526790   0.000004716
   0.434845509   0.101508863   0.333325213
   0.434833692   0.101498993   0.666670551
   0.434831716   0.434830949   0.000000598
   0.434827463   0.434826347   0.333329683
   0.434831627   0.434831701   0.666669690
   0.434870562   0.768166447   0.999980407
   0.434872832   0.768177368   0.333349497
   0.434851493   0.768169728   0.666670488
   0.767800912   0.101758224   0.000100448
   0.767945475   0.101499233   0.333562023
   0.767801489   0.101552122   0.666344648
   0.768168624   0.434847161   0.000004409
   0.768179768   0.434850226   0.333323456
   0.768179981   0.434848257   0.666672118
   0.767379443   0.767379198   0.000084198
   0.768356707   0.768349606   0.333029332
   0.768236188   0.768260368   0.666888003
   0.232620802   0.232620555   0.000084204
   0.231650420   0.231643321   0.333029337
   0.231739635   0.231763799   0.666887992
   0.231833533   0.565129430   0.999980399
   0.231822625   0.565127157   0.333349501
   0.231830252   0.565148489   0.666670495
   0.231131387   0.898613618   0.001312900
   0.230995389   0.898843043   0.332259873
   0.232158034   0.898431028   0.666363164
   0.565152832   0.231831367   0.000004406
   0.565149769   0.231820231   0.333323454
   0.565151716   0.231819996   0.666672114
   0.565169050   0.565168277   0.000000590
   0.565173668   0.565172540   0.333329685
   0.565168297   0.565168370   0.666669695
   0.565155536   0.898472604   0.999996714
   0.565167960   0.898492209   0.333332401
   0.565168134   0.898493178   0.666671314
   0.898241775   0.232199081   0.000100442
   0.898500760   0.232054526   0.333562019
   0.898447867   0.232198504   0.666344649
   0.898473192   0.565141722   0.000004706
   0.898491158   0.565154502   0.333325216
   0.898501015   0.565166309   0.666670556
   0.897649428   0.896578346   0.001280370
   0.899500045   0.898528461   0.332852406
   0.898071166   0.898073406   0.665754664
   0.065035560   0.268560415   0.167014876
   0.065143821   0.268100717   0.499983402
   0.065046711   0.268596612   0.833009210
   0.065142024   0.601543151   0.166672510
   0.065175102   0.601509921   0.500002358
   0.065181400   0.601511974   0.833324938
   0.064939383   0.935060616   0.499586708
   0.066670218   0.933329787   0.830215049
   0.398479867   0.268162452   0.166663993
   0.398506092   0.268180749   0.500000815
   0.398479148   0.268157656   0.833335205
   0.398473136   0.601526861   0.166658932
   0.398477135   0.601522871   0.499986879
   0.398475935   0.601524069   0.833353433
   0.398456846   0.934857973   0.166672507
   0.398490073   0.934824887   0.500002365
   0.398488018   0.934818602   0.833324932
   0.731957458   0.268042536   0.166671143
   0.731842549   0.268157452   0.500006342
   0.731975428   0.268024571   0.833325926
   0.731837539   0.601520135   0.166663992
   0.731819226   0.601493933   0.500000817
   0.731842322   0.601520869   0.833335211
   0.731439582   0.934964434   0.167014879
   0.731899265   0.934856199   0.499983403
   0.731403407   0.934953281   0.833009211
   0.268223885   0.064837040   0.167014276
   0.268145342   0.065129080   0.500026603
   0.268647756   0.065031722   0.832959469
   0.268147324   0.398483861   0.166663058
   0.268173879   0.398506558   0.499999318
   0.268149837   0.398479674   0.833337829
   0.268111794   0.731888210   0.166692661
   0.268161542   0.731838469   0.500005108
   0.268011023   0.731988978   0.833332790
   0.601505941   0.065171469   0.166682156
   0.601515430   0.065166872   0.499990500
   0.601513378   0.065174469   0.833327043
   0.601520617   0.398479387   0.166659390
   0.601512523   0.398487483   0.499999217
   0.601514087   0.398485917   0.833341285
   0.601516131   0.731852679   0.166663054
   0.601493459   0.731826113   0.499999320
   0.601520335   0.731850152   0.833337847
   0.936422404   0.063577591   0.170977477
   0.934904017   0.065095985   0.500096160
   0.933520419   0.066479583   0.829892078
   0.934828521   0.398494059   0.166682154
   0.934833122   0.398484583   0.499990475
   0.934825529   0.398486631   0.833327049
   0.935162982   0.731776094   0.167014289
   0.934870909   0.731854664   0.500026608
   0.934968291   0.731352229   0.832959466
H107LiMg53
   1.00000000
   13.503540955  -0.000029556  -0.000029877
  -0.000029556   13.503540953   0.000029877
  -0.000019979   0.000019980   9.029526448
  Li  Mg  H
  1  53  107
Direct configuration=     4
   0.997137274   0.002862705   0.994229196
   0.996514731   0.003485205   0.337223277
   0.000114353   0.999885623   0.671000899
   0.000047588   0.333166433   0.999983048
   0.999970186   0.333320078   0.333459026
   0.999958535   0.333294587   0.666566913
   0.999888522   0.666985124   0.999955061
   0.999954002   0.666852306   0.333495842
   0.999931802   0.666749320   0.666545186
   0.333014851   0.000111455   0.999955068
   0.333147702   0.000045993   0.333495826
   0.333250688   0.000068194   0.666545173
   0.333444009   0.333435979   0.999993413
   0.333120386   0.333109952   0.333289982
   0.333137795   0.333141692   0.666717914
   0.333244270   0.666755714   0.999828464
   0.333353367   0.666646630   0.333397825
   0.333261680   0.666738321   0.666772004
   0.666833541   0.999952393   0.999983055
   0.666679931   0.000029806   0.333459022
   0.666705403   0.000041457   0.666566924
   0.666906402   0.333093596   0.999979305
   0.666736539   0.333263470   0.333248644
   0.666780441   0.333219545   0.666773722
   0.666564013   0.666556005   0.999993434
   0.666890021   0.666879597   0.333289972
   0.666858307   0.666862222   0.666717925
   0.165379209   0.165667390   0.165395435
   0.166846289   0.166612518   0.499732746
   0.164915793   0.164700733   0.835003606
   0.166547068   0.499982775   0.166618647
   0.166612771   0.499942109   0.500057013
   0.166579142   0.499955366   0.833324599
   0.169735413   0.830264590   0.166560184
   0.166364769   0.833635226   0.500254512
   0.165744823   0.834255161   0.833140127
   0.500029935   0.166629125   0.166617629
   0.499982969   0.166625786   0.500009640
   0.500010240   0.166593546   0.833373104
   0.500023975   0.499976041   0.166676501
   0.500000804   0.499999204   0.500003645
   0.500003717   0.499996289   0.833319737
   0.500017216   0.833452922   0.166618652
   0.500057888   0.833387222   0.500057015
   0.500044651   0.833420845   0.833324579
   0.835128554   0.164871448   0.166620664
   0.833550346   0.166449653   0.499999719
   0.834320518   0.165679470   0.833375584
   0.833370877   0.499970064   0.166617632
   0.833374189   0.500017036   0.500009629
   0.833406455   0.499989774   0.833373095
   0.834332617   0.834620773   0.165395424
   0.833387495   0.833153703   0.499732751
   0.835299286   0.835084196   0.835003608
   0.103177345   0.101657783   0.001280151
   0.101717815   0.100216635   0.332684253
   0.101781317   0.101799057   0.665815626
   0.101484370   0.434790221   0.999995323
   0.101495354   0.434820182   0.333345982
   0.101488777   0.434814423   0.666659534
   0.101097893   0.769103512   0.001607751
   0.100926386   0.769292205   0.331902990
   0.101672645   0.767660811   0.666209504
   0.434832146   0.101507452   0.000008226
   0.434859399   0.101518353   0.333333592
   0.434831722   0.101488638   0.666658023
   0.434826953   0.434818081   0.999997415
   0.434808624   0.434798263   0.333327455
   0.434817509   0.434816651   0.666675175
   0.434863252   0.768162845   0.000005682
   0.434863174   0.768182097   0.333326559
   0.434871212   0.768172438   0.666668281
   0.767955251   0.101773738   0.000272741
   0.768032822   0.101531654   0.333526723
   0.767714329   0.101681639   0.666180776
   0.768170484   0.434875104   0.000005193
   0.768189498   0.434871969   0.333326855
   0.768186938   0.434877107   0.666668158
   0.767373332   0.767388201   0.000009283
   0.768677994   0.768673434   0.332474489
   0.768432251   0.768456855   0.667504547
   0.232611811   0.232626678   0.000009281
   0.231326582   0.231322027   0.332474486
   0.231543142   0.231567738   0.667504543
   0.231837151   0.565136753   0.000005679
   0.231817909   0.565136824   0.333326557
   0.231827568   0.565128795   0.666668288
   0.230896505   0.898902119   0.001607751
   0.230707793   0.899073609   0.331902984
   0.232339194   0.898327358   0.666209500
   0.565124886   0.231829506   0.000005196
   0.565128022   0.231810494   0.333326854
   0.565122907   0.231813077   0.666668152
   0.565181916   0.565173033   0.999997420
   0.565201745   0.565191375   0.333327447
   0.565183350   0.565182489   0.666675177
   0.565209797   0.898515644   0.999995316
   0.565179827   0.898504650   0.333345987
   0.565185591   0.898511229   0.666659533
   0.898226294   0.232044771   0.000272739
   0.898468342   0.231967182   0.333526732
   0.898318356   0.232285669   0.666180772
   0.898492568   0.565167871   0.000008221
   0.898481658   0.565140607   0.333333592
   0.898511359   0.565168270   0.666658037
   0.898342208   0.896822653   0.001280146
   0.899783396   0.898282213   0.332684268
   0.898200950   0.898218685   0.665815623
   0.065017287   0.268606351   0.167029516
   0.065146231   0.268040530   0.499920766
   0.065120087   0.268527332   0.833069721
   0.065155299   0.601560799   0.166647438
   0.065155747   0.601558831   0.499977789
   0.065195183   0.601536326   0.833370158
   0.064505171   0.935494825   0.500000274
   0.066058078   0.933941927   0.829634510
   0.398538649   0.268169092   0.166708521
   0.398517435   0.268190682   0.499988363
   0.398541602   0.268165633   0.833304508
   0.398374420   0.601625578   0.166648241
   0.398459495   0.601540497   0.499962134
   0.398475163   0.601524835   0.833385573
   0.398439197   0.934844702   0.166647455
   0.398441170   0.934844238   0.499977783
   0.398463671   0.934804819   0.833370156
   0.732322566   0.267677429   0.166702009
   0.731877228   0.268122773   0.499986835
   0.732387951   0.267612046   0.833314202
   0.731830903   0.601461354   0.166708520
   0.731809320   0.601482569   0.499988362
   0.731834369   0.601458391   0.833304487
   0.731393630   0.934982723   0.167029526
   0.731959457   0.934853777   0.499920757
   0.731472668   0.934879919   0.833069693
   0.268170370   0.064798598   0.167059173
   0.268160172   0.065094355   0.500018505
   0.268670534   0.065065827   0.832930863
   0.268141006   0.398540262   0.166706944
   0.268183721   0.398512123   0.499989310
   0.268159569   0.398536145   0.833304848
   0.269061907   0.730938092   0.166720029
   0.268110739   0.731889262   0.499897405
   0.267574285   0.732425718   0.833416002
   0.601499410   0.065170973   0.166660155
   0.601513928   0.065144092   0.499973879
   0.601497333   0.065181608   0.833367545
   0.601514484   0.398485522   0.166643573
   0.601517197   0.398482804   0.500001368
   0.601501234   0.398498773   0.833354611
   0.601459741   0.731858986   0.166706941
   0.601487888   0.731816276   0.499989321
   0.601463852   0.731840435   0.833304838
   0.936655669   0.063344332   0.170904381
   0.934559058   0.065440942   0.501910829
   0.933915376   0.066084629   0.829172926
   0.934829033   0.398500590   0.166660150
   0.934855924   0.398486058   0.499973873
   0.934818392   0.398502672   0.833367550
   0.935201413   0.731829627   0.167059176
   0.934905638   0.731839833   0.500018485
   0.934934185   0.731329456   0.832930860
H107LiMg53
   1.00000000
   13.503765167  -0.000046920  -0.000039348
  -0.000046920   13.503765163   0.000039349
  -0.000026313   0.000026314   9.029354222
  Li  Mg  H
  1  53  107
Direct configuration=     5
   0.996144702   0.003855273   0.992551690
   0.995787425   0.004212475   0.338958469
   0.000240707   0.999759270   0.670981426
   0.000072307   0.333215709   0.999971716
   0.999960007   0.333367485   0.333568685
   0.999947416   0.333337717   0.666473515
   0.999881316   0.667073011   0.000018086
   0.999976023   0.666952802   0.333531949
   0.999916318   0.666715239   0.666444809
   0.332926944   0.000118655   0.000018082
   0.333047204   0.000023966   0.333531931
   0.333284763   0.000083677   0.666444792
   0.333540148   0.333526560   0.999994477
   0.333023763   0.333007125   0.333280839
   0.333041460   0.333044525   0.666726076
   0.333243878   0.666756098   0.999633857
   0.333402426   0.666597588   0.333521181
   0.333221115   0.666778883   0.666847304
   0.666784245   0.999927647   0.999971700
   0.666632520   0.000039978   0.333568673
   0.666662277   0.000052568   0.666473559
   0.667026040   0.332973949   0.999975450
   0.666783158   0.333216870   0.333179100
   0.666844536   0.333155420   0.666848268
   0.666473420   0.666459864   0.999994516
   0.666992841   0.666976220   0.333280823
   0.666955464   0.666958573   0.666726081
   0.165267870   0.165576847   0.165694387
   0.166953566   0.166641957   0.499495219