H107LiMg53
   1.00000000
   13.503017156  -0.000000033  -0.000000000
  -0.000000033   13.503017156   0.000000000
  -0.000000000   0.000000000   9.029981226
  Li  Mg  H
  1  53  107
Direct configuration=     1
   0.999999456   0.999999662   1.000000000
   0.000002545   0.000002416   0.332895274
   0.000002545   0.000002416   0.667104726
   0.000000966   0.333304092   0.000000000
   0.999998342   0.333321627   0.333326405
   0.999998342   0.333321627   0.666673595
   0.999999565   0.666696032   0.000000000
   0.000000255   0.666679637   0.333326479
   0.000000255   0.666679637   0.666673521
   0.333299136   0.000004481   1.000000000
   0.333315513   0.999995893   0.333318007
   0.333315513   0.999995893   0.666681993
   0.333322404   0.333336195   1.000000000
   0.333168773   0.333489058   0.332904680
   0.333168773   0.333489058   0.667095320
   0.333326445   0.666672870   1.000000000
   0.333331803   0.666668349   0.333335611
   0.333331804   0.666668349   0.666664389
   0.666694457   0.000001165   1.000000000
   0.666677381   0.000002522   0.333335783
   0.666677381   0.000002522   0.666664217
   0.666669252   0.333331544   0.000000000
   0.666670631   0.333337971   0.333327175
   0.666670631   0.333337971   0.666672825
   0.666670760   0.666671090   1.000000000
   0.666668519   0.666668370   0.333328075
   0.666668519   0.666668370   0.666671925
   0.166539912   0.166530042   0.166471985
   0.166633437   0.166644215   0.500000000
   0.166539912   0.166530042   0.833528015
   0.166671405   0.499990783   0.166667678
   0.166638347   0.500025784   0.500000000
   0.166671405   0.499990783   0.833332322
   0.166525492   0.833475046   0.166621285
   0.166654313   0.833343695   0.500000000
   0.166525492   0.833475046   0.833378715
   0.500007781   0.166654421   0.166628581
   0.500183115   0.166481250   0.500000000
   0.500007781   0.166654422   0.833371419
   0.500004738   0.499994459   0.166660348
   0.500012548   0.500023088   0.500000000
   0.500004738   0.499994459   0.833339652
   0.499999900   0.833336857   0.166662155
   0.499998845   0.833336303   0.500000000
   0.499999900   0.833336857   0.833337845
   0.833475503   0.166525494   0.166618853
   0.833344335   0.166656324   0.500000000
   0.833475503   0.166525494   0.833381147
   0.833337341   0.499999875   0.166664561
   0.833336949   0.500000881   0.500000000
   0.833337341   0.499999874   0.833335439
   0.833465696   0.833466007   0.166479172
   0.833343636   0.833343157   0.500000000
   0.833465696   0.833466007   0.833520828
   0.101606701   0.101608407   1.000000000
   0.101470898   0.101469880   0.333412024
   0.101470898   0.101469880   0.666587976
   0.101433825   0.434774939   0.000000000
   0.101442917   0.434768811   0.333338113
   0.101442917   0.434768811   0.666661887
   0.101457364   0.768073969   1.000000000
   0.101437902   0.768084196   0.333356399
   0.101437902   0.768084196   0.666643601
   0.434774213   0.101438459   0.000000000
   0.434749743   0.101495828   0.333403502
   0.434749743   0.101495828   0.666596498
   0.434780088   0.434780249   1.000000000
   0.434759661   0.434708366   0.333410965
   0.434759661   0.434708366   0.666589035
   0.434772292   0.768105171   0.000000000
   0.434772428   0.768105492   0.333332114
   0.434772428   0.768105492   0.666667886
   0.768074562   0.101456765   1.000000000
   0.768086543   0.101438157   0.333353948
   0.768086543   0.101438157   0.666646052
   0.768105343   0.434771698   1.000000000
   0.768106615   0.434772624   0.333333043
   0.768106615   0.434772624   0.666666957
   0.768039229   0.768039279   1.000000000
   0.768108643   0.768108692   0.333325933
   0.768108643   0.768108692   0.666674067
   0.231952925   0.231953028   0.000000000
   0.231954603   0.231903532   0.333403640
   0.231954603   0.231903532   0.666596360
   0.231893104   0.565234527   0.000000000
   0.231897276   0.565223325   0.333338321
   0.231897276   0.565223324   0.666661679
   0.231926816   0.898542574   0.000000000
   0.231915954   0.898561205   0.333356537
   0.231915954   0.898561205   0.666643463
   0.565229881   0.231893822   1.000000000
   0.565170420   0.231916433   0.333403723
   0.565170420   0.231916433   0.666596277
   0.565227833   0.565229641   0.000000000
   0.565223519   0.565222579   0.333339346
   0.565223519   0.565222579   0.666660654
   0.565227372   0.898558558   0.000000000
   0.565227899   0.898558628   0.333330167
   0.565227900   0.898558629   0.666669833
   0.898542705   0.231926244   0.000000000
   0.898562351   0.231916185   0.333355637
   0.898562351   0.231916185   0.666644363
   0.898559163   0.565226742   0.000000000
   0.898560965   0.565228157   0.333332640
   0.898560965   0.565228157   0.666667360
   0.898391326   0.898391325   0.000000000
   0.898534723   0.898534751   0.333405578
   0.898534723   0.898534751   0.666594422
   0.065215925   0.268137748   0.166693243
   0.065229782   0.268101523   0.500000000
   0.065215925   0.268137748   0.833306757
   0.065229136   0.601439262   0.166667358
   0.065228295   0.601439648   0.500000000
   0.065229136   0.601439262   0.833332642
   0.065358165   0.934640810   0.166966241
   0.065214139   0.934784385   0.500000000
   0.065358165   0.934640810   0.833033759
   0.398563025   0.268099591   0.166676878
   0.398563025   0.268099591   0.833323122
   0.398559735   0.601440843   0.166667642
   0.398558258   0.601435921   0.500000000
   0.398559735   0.601440843   0.833332359
   0.398561126   0.934771024   0.166667922
   0.398559235   0.934773117   0.500000000
   0.398561126   0.934771024   0.833332077
   0.731899302   0.268100117   0.166665663
   0.731892877   0.268106804   0.500000000
   0.731899302   0.268100117   0.833334337
   0.731896917   0.601441621   0.166665663
   0.731895212   0.601439249   0.500000000
   0.731896917   0.601441622   0.833334338
   0.731862755   0.934782881   0.166692743
   0.731902766   0.934771784   0.500000000
   0.731862755   0.934782881   0.833307257
   0.268138969   0.065214176   0.166689761
   0.268113061   0.065252682   0.500000000
   0.268138969   0.065214176   0.833310239
   0.268094917   0.398567639   0.166672781
   0.268307048   0.398360031   0.500000000
   0.268094917   0.398567639   0.833327219
   0.268101223   0.731898969   0.166666464
   0.268105509   0.731895543   0.500000000
   0.268101223   0.731898969   0.833333536
   0.601439974   0.065228422   0.166667674
   0.601436621   0.065231318   0.500000000
   0.601439974   0.065228422   0.833332326
   0.601442486   0.398558502   0.166664185
   0.601412926   0.398546670   0.500000000
   0.601442486   0.398558502   0.833335815
   0.601441080   0.731897030   0.166665845
   0.601438502   0.731895613   0.500000000
   0.601441080   0.731897030   0.833334156
   0.934640697   0.065358660   0.166966576
   0.934783992   0.065214879   0.500000000
   0.934640697   0.065358660   0.833033424
   0.934771344   0.398560061   0.166668728
   0.934770452   0.398560559   0.500000000
   0.934771344   0.398560061   0.833331272
   0.934782651   0.731863011   0.166692303
   0.934773583   0.731900969   0.500000000
   0.934782651   0.731863011   0.833307697
H107LiMg53
   1.00000000
   13.503220737  -0.000002232   0.000000000
  -0.000002232   13.503220775  -0.000000000
   0.000000000  -0.000000000   9.029765296
  Li  Mg  H
  1  53  107
Direct configuration=     2
   0.999992899   0.999995516   1.000000000
   0.000030004   0.000028146   0.328325576
   0.000030005   0.000028145   0.671674450
   0.000009933   0.333003846   0.999999985
   0.999976958   0.333201473   0.333270958
   0.999976959   0.333201475   0.666729069
   0.999991675   0.666996765   0.999999995
   0.000001674   0.666814544   0.333268868
   0.000001673   0.666814543   0.666731145
   0.332944829   0.000053415   0.999999983
   0.333133646   0.999961534   0.333180312
   0.333133643   0.999961538   0.666819712
   0.333235963   0.333367546   0.999999980
   0.331324586   0.335223518   0.328236798
   0.331324583   0.335223514   0.671763228
   0.333244075   0.666753251   0.999999995
   0.333313412   0.666692035   0.333352980
   0.333313411   0.666692038   0.666647023
   0.666980592   0.000008194   0.999999972
   0.666792471   0.000023794   0.333368222
   0.666792471   0.000023792   0.666631792
   0.666708578   0.333304908   0.999999981
   0.666705821   0.333381964   0.333261806
   0.666705821   0.333381966   0.666738223
   0.666700856   0.666704783   0.999999987
   0.666696295   0.666694148   0.333277498
   0.666696295   0.666694147   0.666722522
   0.165184577   0.165063200   0.164477192
   0.166291682   0.166416549   0.499999989
   0.165184577   0.165063204   0.835522810
   0.166701951   0.499908417   0.166680877
   0.166381264   0.500249915   0.499999980
   0.166701952   0.499908411   0.833319134
   0.165061244   0.834944515   0.166174508
   0.166499232   0.833476364   0.499999982
   0.165061240   0.834944509   0.833825522
   0.500092622   0.166517707   0.166234679
   0.502221418   0.164412693   0.499999982
   0.500092620   0.166517706   0.833765347
   0.500053067   0.499927081   0.166614970
   0.500151556   0.500273682   0.499999981
   0.500053067   0.499927078   0.833385040
   0.499997452   0.833378340   0.166608190
   0.499985809   0.833372065   0.499999991
   0.499997452   0.833378341   0.833391842
   0.834951227   0.165061859   0.166145700
   0.833483919   0.166526245   0.499999982
   0.834951228   0.165061860   0.833854326
   0.833385270   0.499997957   0.166636859
   0.833379625   0.500013083   0.499999984
   0.833385269   0.499997959   0.833363167
   0.834889186   0.834892681   0.164534342
   0.833438497   0.833429636   0.499999991
   0.834889182   0.834892680   0.835465669
   0.103426004   0.103446263   0.999999997
   0.101874732   0.101861927   0.334245970
   0.101874729   0.101861927   0.665754037
   0.101442500   0.434855908   0.999999986
   0.101562052   0.434781511   0.333407548
   0.101562052   0.434781510   0.666592468
   0.101725031   0.767796545   0.999999983
   0.101501155   0.767903951   0.333620008
   0.101501150   0.767903946   0.666380005
   0.434846030   0.101489864   0.999999988
   0.434541609   0.102192220   0.334186916
   0.434541606   0.102192217   0.665813101
   0.434917056   0.434922200   0.999999997
   0.434693911   0.434057878   0.334261545
   0.434693911   0.434057879   0.665738462
   0.434832091   0.768160580   0.999999994
   0.434833231   0.768165080   0.333323037
   0.434833232   0.768165079   0.666676966
   0.767802693   0.101717551   0.999999990
   0.767930099   0.101503553   0.333592255
   0.767930099   0.101503552   0.666407755
   0.768163344   0.434825228   0.999999991
   0.768179306   0.434836495   0.333334762
   0.768179304   0.434836494   0.666665250
   0.767375646   0.767375918   0.999999991
   0.768223676   0.768223587   0.333193398
   0.768223676   0.768223585   0.666806618
   0.232531911   0.232536533   0.999999991
   0.232539661   0.231905343   0.334121470
   0.232539663   0.231905344   0.665878546
   0.231817643   0.565243867   0.999999994
   0.231872765   0.565103077   0.333410052
   0.231872764   0.565103076   0.666589968
   0.232213439   0.898274026   0.999999991
   0.232096612   0.898487734   0.333621828
   0.232096612   0.898487736   0.666378177
   0.565196352   0.231827515   0.999999991
   0.564473070   0.232113740   0.334189579
   0.564473071   0.232113742   0.665810419
   0.565174783   0.565196352   0.999999997
   0.565117156   0.565105326   0.333405573
   0.565117156   0.565105330   0.666594441
   0.565172642   0.898472068   0.999999990
   0.565174688   0.898471486   0.333301730
   0.565174693   0.898471490   0.666698269
   0.898276292   0.232206851   0.999999991
   0.898502289   0.232100340   0.333610460
   0.898502291   0.232100345   0.666389550
   0.898478341   0.565164815   0.999999987
   0.898497530   0.565177086   0.333329788
   0.898497532   0.565177092   0.666670213
   0.896548164   0.896547816   0.999999995
   0.898198517   0.898198202   0.334172255
   0.898198519   0.898198203   0.665827744
   0.065040157   0.268541208   0.166980043
   0.065190985   0.268123321   0.499999986
   0.065040155   0.268541211   0.833019961
   0.065190759   0.601502925   0.166670291
   0.065167713   0.601519334   0.499999987
   0.065190758   0.601502926   0.833329717
   0.066651085   0.933337231   0.170215446
   0.064977695   0.935005572   0.499999987
   0.066651085   0.933337234   0.829784556
   0.398522648   0.268098686   0.166745500
   0.398522644   0.268098685   0.833254500
   0.398486933   0.601517025   0.166677332
   0.398460080   0.601468668   0.499999994
   0.398486937   0.601517023   0.833322669
   0.398498837   0.934817436   0.166676520
   0.398474316   0.934843883   0.499999986
   0.398498832   0.934817438   0.833323492
   0.731931546   0.268058175   0.166654239
   0.731814597   0.268179774   0.499999991
   0.731931546   0.268058176   0.833345764
   0.731862822   0.601528987   0.166655059
   0.731842060   0.601503870   0.499999991
   0.731862820   0.601528987   0.833344942
   0.731460785   0.934952453   0.166972495
   0.731923792   0.934833517   0.499999989
   0.731460780   0.934952455   0.833027528
   0.268558245   0.065014420   0.166934974
   0.268263674   0.065470061   0.499999986
   0.268558247   0.065014418   0.833065028
   0.268000461   0.398619914   0.166631398
   0.270573842   0.396097370   0.499999985
   0.268000463   0.398619912   0.833368617
   0.268071171   0.731931187   0.166663705
   0.268163987   0.731848064   0.499999991
   0.268071169   0.731931188   0.833336307
   0.601512590   0.065181103   0.166678377
   0.601538789   0.065148298   0.499999989
   0.601512590   0.065181104   0.833321631
   0.601541735   0.398469549   0.166632561
   0.601188504   0.398318956   0.499999987
   0.601541737   0.398469544   0.833367452
   0.601522572   0.731863777   0.166657048
   0.601494364   0.731846842   0.499999991
   0.601522573   0.731863775   0.833342946
   0.933336348   0.066656876   0.170219134
   0.935000873   0.064987161   0.499999994
   0.933336349   0.066656876   0.829780858
   0.934817731   0.398486190   0.166685924
   0.934810545   0.398490411   0.499999990
   0.934817731   0.398486186   0.833314079
   0.934948152   0.731465351   0.166965406
   0.934848659   0.731908657   0.499999992
   0.934948151   0.731465351   0.833034592
H107LiMg53
   1.00000000
   13.503242650  -0.000004852   0.000000000
  -0.000004852   13.503242686  -0.000000000
   0.000000000  -0.000000000   9.029751389
  Li  Mg  H
  1  53  107
Direct configuration=     3
   0.999992183   0.999994969   0.999999999
   0.000030545   0.000028331   0.328416231
   0.000030546   0.000028330   0.671583792
   0.000008736   0.333011152   0.999999986
   0.999973511   0.333203007   0.333284822
   0.999973512   0.333203008   0.666715198
   0.999988867   0.666988796   0.999999995
   0.000000556   0.666814463   0.333280344
   0.000000556   0.666814463   0.666719666
   0.332951005   0.000054294   0.999999984
   0.333137885   0.999970866   0.333201187
   0.333137883   0.999970869   0.666798835
   0.333262926   0.333364073   0.999999982
   0.331247436   0.335278234   0.328161620
   0.331247435   0.335278231   0.671838406
   0.333231386   0.666770569   0.999999996
   0.333307370   0.666701167   0.333342887
   0.333307370   0.666701170   0.666657115
   0.666974575   0.000003473   0.999999975
   0.666797546   0.000017515   0.333369354
   0.666797547   0.000017513   0.666630662
   0.666723810   0.333293440   0.999999983
   0.666702473   0.333373244   0.333258569
   0.666702473   0.333373246   0.666741456
   0.666690859   0.666694814   0.999999988
   0.666707516   0.666704954   0.333278802
   0.666707516   0.666704953   0.666721216
   0.165189974   0.165062013   0.164572251
   0.166308694   0.166432441   0.499999989
   0.165189974   0.165062017   0.835427752
   0.166684861   0.499924850   0.166685203
   0.166417635   0.500211069   0.499999981
   0.166684862   0.499924845   0.833314806
   0.165112279   0.834893092   0.166209363
   0.166480272   0.833494180   0.499999982
   0.165112275   0.834893086   0.833790664
   0.500093466   0.166515938   0.166250193
   0.502291772   0.164339891   0.499999983
   0.500093464   0.166515939   0.833749829
   0.500051095   0.499918870   0.166638995
   0.500155595   0.500276571   0.499999983
   0.500051095   0.499918867   0.833361013
   0.499996113   0.833378911   0.166606068
   0.499985095   0.833372786   0.499999992
   0.499996113   0.833378912   0.833393960
   0.834900887   0.165113619   0.166180047
   0.833501932   0.166510656   0.499999983
   0.834900889   0.165113620   0.833819976
   0.833386913   0.499997446   0.166635292
   0.833380471   0.500015718   0.499999985
   0.833386913   0.499997446   0.833364730
   0.834891569   0.834894922   0.164606540
   0.833420472   0.833409166   0.499999991
   0.834891565   0.834894921   0.835393471
   0.103396205   0.103416938   0.999999997
   0.101873679   0.101859966   0.334238684
   0.101873678   0.101859966   0.665761321
   0.101441879   0.434852705   0.999999987
   0.101574129   0.434774681   0.333420730
   0.101574128   0.434774680   0.666579284
   0.101732191   0.767796374   0.999999984
   0.101511604   0.767891493   0.333634961
   0.101511600   0.767891489   0.666365053
   0.434841717   0.101483498   0.999999990
   0.434518878   0.102217681   0.334216849
   0.434518875   0.102217678   0.665783167
   0.434915351   0.434923652   0.999999998
   0.434705371   0.434032706   0.334278324
   0.434705371   0.434032707   0.665721681
   0.434834946   0.768160731   0.999999995
   0.434835832   0.768165986   0.333323162
   0.434835833   0.768165985   0.666676841
   0.767801821   0.101724253   0.999999992
   0.767916474   0.101513623   0.333607962
   0.767916474   0.101513622   0.666392048
   0.768164260   0.434828150   0.999999993
   0.768181041   0.434839793   0.333335794
   0.768181039   0.434839792   0.666664218
   0.767363111   0.767363159   0.999999992
   0.768242916   0.768242186   0.333143271
   0.768242915   0.768242185   0.666856744
   0.232543463   0.232551581   0.999999991
   0.232546092   0.231874559   0.334091908
   0.232546093   0.231874559   0.665908109
   0.231816057   0.565238344   0.999999994
   0.231877789   0.565087778   0.333422950
   0.231877788   0.565087777   0.666577069
   0.232214328   0.898266527   0.999999992
   0.232108067   0.898476799   0.333637146
   0.232108068   0.898476800   0.666362858
   0.565196607   0.231827098   0.999999992
   0.564444564   0.232134792   0.334219338
   0.564444565   0.232134794   0.665780661
   0.565176069   0.565198034   0.999999997
   0.565113008   0.565100311   0.333404248
   0.565113008   0.565100316   0.666595766
   0.565177266   0.898475168   0.999999992
   0.565175543   0.898473359   0.333303318
   0.565175548   0.898473362   0.666696682
   0.898269566   0.232207822   0.999999992
   0.898492237   0.232112567   0.333624887
   0.898492238   0.232112572   0.666375123
   0.898480747   0.565169013   0.999999989
   0.898498376   0.565177587   0.333330749
   0.898498378   0.565177593   0.666669252
   0.896575367   0.896574742   0.999999995
   0.898206191   0.898205234   0.334166845
   0.898206193   0.898205235   0.665833155
   0.065046020   0.268542037   0.166986349
   0.065187074   0.268128650   0.499999987
   0.065046019   0.268542039   0.833013657
   0.065193132   0.601500092   0.166669703
   0.065159787   0.601525420   0.499999988
   0.065193132   0.601500093   0.833330305
   0.066609728   0.933378756   0.170285863
   0.064949039   0.935034867   0.499999988
   0.066609728   0.933378758   0.829714140
   0.398523639   0.268103293   0.166711778
   0.398523635   0.268103292   0.833288219
   0.398490124   0.601511077   0.166679652
   0.398455326   0.601470244   0.499999995
   0.398490129   0.601511074   0.833320348
   0.398499507   0.934820616   0.166675657
   0.398473048   0.934848958   0.499999987
   0.398499502   0.934820619   0.833324355
   0.731963089   0.268023217   0.166657137
   0.731812731   0.268179603   0.499999992
   0.731963089   0.268023218   0.833342864
   0.731861529   0.601524355   0.166659040
   0.731840190   0.601502444   0.499999993
   0.731861527   0.601524356   0.833340962
   0.731456572   0.934952484   0.166977167
   0.731916704   0.934842285   0.499999989
   0.731456568   0.934952485   0.833022853
   0.268561541   0.065015467   0.166937197
   0.268274477   0.065477082   0.499999987
   0.268561543   0.065015465   0.833062804
   0.267950642   0.398674716   0.166502672
   0.270639678   0.396034558   0.499999986
   0.267950643   0.398674714   0.833497341
   0.268036430   0.731965962   0.166666607
   0.268163341   0.731848596   0.499999992
   0.268036427   0.731965963   0.833333404
   0.601510629   0.065182672   0.166682250
   0.601611180   0.065074264   0.499999990
   0.601510629   0.065182673   0.833317756
   0.601540958   0.398470101   0.166630736
   0.601178989   0.398308589   0.499999988
   0.601540960   0.398470097   0.833369276
   0.601517825   0.731862150   0.166660906
   0.601492080   0.731845096   0.499999992
   0.601517826   0.731862148   0.833339088
   0.933378377   0.066615493   0.170289404
   0.935030011   0.064959420   0.499999994
   0.933378377   0.066615493   0.829710588
   0.934817738   0.398486597   0.166685011
   0.934813309   0.398489613   0.499999992
   0.934817738   0.398486594   0.833314991
   0.934946796   0.731462461   0.166968375
   0.934852700   0.731906291   0.499999992
   0.934946796   0.731462460   0.833031624
H107LiMg53
   1.00000000
   13.503698794  -0.000054982  -0.000000000
  -0.000054982   13.503698696  -0.000000000
  -0.000000000  -0.000000000   9.029445970
  Li  Mg  H
  1  53  107
Direct configuration=     4
   0.999977805   0.999984106   0.999999987
   0.000047106   0.000037744   0.329229328
   0.000047082   0.000037743   0.670770661
   0.999990403   0.333083690   0.999999980
   0.999907271   0.333212616   0.333517441
   0.999907273   0.333212621   0.666482560
   0.999937789   0.666905927   0.999999965
   0.999979848   0.666835859   0.333475890
   0.999979846   0.666835859   0.666524069
   0.332992168   0.000077302   0.999999966
   0.333181024   0.000137713   0.333547415
   0.333181022   0.000137716   0.666452556
   0.333747120   0.333303525   0.999999957
   0.329471567   0.336617783   0.325857140
   0.329471566   0.336617781   0.674142893
   0.332974605   0.667106313   0.999999985
   0.333188626   0.666875545   0.333164305
   0.333188635   0.666875552   0.666835646
   0.666923455   0.999921424   0.999999993
   0.666924698   0.999890856   0.333368928
   0.666924706   0.999890853   0.666631010
   0.667017689   0.333070044   0.999999988
   0.666648727   0.333221544   0.333190680
   0.666648730   0.333221539   0.666809270
   0.666510461   0.666515238   0.999999976
   0.666918516   0.666907718   0.333285788
   0.666918516   0.666907713   0.666714211
   0.165027218   0.164754613   0.165862731
   0.166554355   0.166677057   0.500000035
   0.165027219   0.164754614   0.834137276
   0.166354793   0.500229471   0.166758904
   0.167045363   0.499530578   0.500000028
   0.166354796   0.500229462   0.833241136
   0.165719569   0.834280021   0.166760964
   0.166098780   0.833850524   0.500000031
   0.165719543   0.834280077   0.833239033
   0.500118536   0.166460722   0.166460525
   0.503993668   0.162586517   0.500000021
   0.500118534   0.166460725   0.833539488
   0.500022917   0.499751147   0.167067782
   0.500256703   0.500375338   0.500000018
   0.500022918   0.499751141   0.832932261
   0.499972737   0.833399909   0.166558359
   0.499969511   0.833394250   0.500000025
   0.499972736   0.833399913   0.833441671
   0.834307151   0.165734811   0.166717588
   0.833862616   0.166195878   0.500000039
   0.834307150   0.165734814   0.833282410
   0.833426885   0.499990116   0.166602364
   0.833405144   0.500066432   0.500000026
   0.833426890   0.499990115   0.833397628
   0.835214161   0.835214891   0.165498856
   0.833106260   0.833058495   0.500000019
   0.835214168   0.835214897   0.834501126
   0.103213986   0.103246034   0.999999984
   0.101933528   0.101900073   0.334297911
   0.101933530   0.101900074   0.665702071
   0.101420950   0.434813016   0.999999972
   0.101826629   0.434640705   0.333684939
   0.101826630   0.434640704   0.666315041
   0.101913586   0.767742894   0.999999997
   0.101718811   0.767624353   0.333968969
   0.101718813   0.767624356   0.666031025
   0.434781979   0.101378485   0.999999977
   0.434059564   0.102824545   0.334922372
   0.434059570   0.102824551   0.665077625
   0.434919634   0.434985973   0.999999978
   0.434900430   0.433434095   0.334738813
   0.434900431   0.433434097   0.665261170
   0.434894977   0.768172700   0.999999983
   0.434893226   0.768193191   0.333320359
   0.434893204   0.768193179   0.666679638
   0.767737480   0.101896390   0.999999995
   0.767634442   0.101716829   0.333949115
   0.767634445   0.101716830   0.666050865
   0.768191386   0.434888192   0.999999994
   0.768222308   0.434907486   0.333353043
   0.768222306   0.434907487   0.666646949
   0.767026439   0.767023187   0.999999992
   0.768612431   0.768599429   0.332199557
   0.768612427   0.768599429   0.667800441
   0.232841715   0.232914365   0.999999984
   0.232785092   0.231312095   0.333673607
   0.232785080   0.231312091   0.666326384
   0.231773574   0.565155935   0.999999983
   0.231976940   0.564777874   0.333678353
   0.231976939   0.564777877   0.666321619
   0.232281761   0.898077039   0.999999984
   0.232359246   0.898262015   0.333980492
   0.232359234   0.898262002   0.666019510
   0.565198805   0.231805564   0.999999989
   0.563783136   0.232561651   0.334918404
   0.563783137   0.232561645   0.665081588
   0.565181378   0.565213627   0.999999976
   0.565023435   0.564991877   0.333395807
   0.565023440   0.564991883   0.666604178
   0.565249038   0.898513393   0.999999983
   0.565179353   0.898490235   0.333325077
   0.565179356   0.898490236   0.666674895
   0.898095245   0.232275452   0.999999991
   0.898292355   0.232375227   0.333948475
   0.898292348   0.232375228   0.666051495
   0.898508101   0.565232046   0.999999991
   0.898502731   0.565177730   0.333347644
   0.898502731   0.565177732   0.666652350
   0.896712577   0.896707823   0.999999986
   0.898280231   0.898266916   0.334245182
   0.898280236   0.898266924   0.665754832
   0.065121394   0.268634090   0.167164714
   0.065115634   0.268226467   0.500000010
   0.065121393   0.268634093   0.832835293
   0.065222983   0.601466531   0.166663790
   0.065022614   0.601628992   0.500000020
   0.065222982   0.601466535   0.833336248
   0.066154519   0.933835305   0.172208240
   0.064394278   0.935600155   0.500000022
   0.066154546   0.933835272   0.827791750
   0.398520340   0.268206264   0.166112159
   0.398520333   0.268206265   0.833887833
   0.398520391   0.601428628   0.166723573
   0.398347926   0.601504396   0.500000033
   0.398520393   0.601428629   0.833276448
   0.398501008   0.934890214   0.166668260
   0.398440927   0.934955765   0.500000008
   0.398501004   0.934890215   0.833331774
   0.732522955   0.267395703   0.166714342
   0.731768360   0.268181568   0.500000024
   0.732522955   0.267395699   0.833285678
   0.731829592   0.601453120   0.166733723
   0.731796685   0.601495175   0.500000013
   0.731829583   0.601453127   0.833266281
   0.731305220   0.934983889   0.167115739
   0.731811461   0.934992708   0.500000029
   0.731305224   0.934983885   0.832884271
   0.268702331   0.064995860   0.167030224
   0.268498067   0.065653240   0.500000011
   0.268702332   0.064995858   0.832969800
   0.267020793   0.399692514   0.164086209
   0.272258945   0.394462187   0.500000009
   0.267020797   0.399692507   0.835913812
   0.267415838   0.732586818   0.166722404
   0.268154853   0.731856897   0.500000022
   0.267415848   0.732586807   0.833277597
   0.601486198   0.065204611   0.166764074
   0.602959231   0.063696255   0.500000026
   0.601486194   0.065204617   0.833235949
   0.601559635   0.398448750   0.166588415
   0.600962219   0.398072525   0.500000025
   0.601559618   0.398448768   0.833411596
   0.601443233   0.731824013   0.166733668
   0.601466193   0.731804641   0.500000012
   0.601443234   0.731824006   0.833266353
   0.933844035   0.066161138   0.172209613
   0.935591652   0.064424310   0.500000027
   0.933844046   0.066161131   0.827790372
   0.934827189   0.398480405   0.166675064
   0.934868923   0.398467936   0.500000017
   0.934827190   0.398480404   0.833324944
   0.934955029   0.731333039   0.167077882
   0.934932719   0.731871413   0.500000011
   0.934955029   0.731333040   0.832922130
H107LiMg53
   1.00000000
   13.503765329  -0.000062396  -0.000000000
  -0.000062396   13.503765083  -0.000000000
  -0.000000000  -0.000000000   9.029402784
  Li  Mg  H
  1  53  107
Direct configuration=     5
   0.999976343   0.999982960   0.999999987
   0.000050712   0.000040378   0.329272504
   0.000050689   0.000040378   0.670727483
   0.999990744   0.333081458   0.999999984
   0.999901796   0.333217055   0.333526941
   0.999901798   0.333217060   0.666473058
   0.999934947   0.666909324   0.999999969
   0.999977394   0.666836441   0.333490542
   0.999977392   0.666836442   0.666509421
   0.332986029   0.000077118   0.999999970
   0.333183044   0.000156483   0.333567540
   0.333183042   0.000156486   0.666432433
   0.333799671   0.333294296   0.999999964
   0.329265515   0.336775003   0.325530951
   0.329265516   0.336775000   0.674469083
   0.332938673   0.667143462   0.999999986
   0.333171555   0.666895684   0.333151409
   0.333171564   0.666895690   0.666848547
   0.666927679   0.999917866   0.999999997
   0.666954013   0.999859565   0.333336148
   0.666954022   0.999859561   0.666663797
   0.667055119   0.333038317   0.999999991
   0.666644532   0.333206781   0.333188355
   0.666644535   0.333206776   0.666811597
   0.666490437   0.666494885   0.999999979
   0.666939513   0.666927632   0.333277549
   0.666939513   0.666927627   0.666722448
   0.164990773   0.164699408   0.165884054
   0.166573530   0.166695004   0.500000035