Mg28Ni4O32
   1.00000000
   8.440342358  -0.000000000   0.000000000
  -0.000000000   8.440348759  -0.000004831
   0.000000000  -0.000004831   8.440348759
  Ni  Mg  O
  4  28  32
Direct configuration=     1
   0.000000000   0.000049003   0.000049003
   0.000000000   0.499950997   0.499950997
   0.000000000   0.250000000   0.250000000
   0.500000000   0.750000000   0.750000000
   0.000000000   0.000039933   0.499960067
   0.000000000   0.499960067   0.000039933
   0.500000000   0.999871407   0.999871407
   0.500000000   0.999873845   0.500126155
   0.500000000   0.500126155   0.999873845
   0.500000000   0.500128593   0.500128593
   0.000000000   0.250000000   0.750000000
   0.000000000   0.750000000   0.250000000
   0.000000000   0.750000000   0.750000000
   0.500000000   0.250000000   0.250000000
   0.500000000   0.250000000   0.750000000
   0.500000000   0.750000000   0.250000000
   0.249860150   0.000060139   0.249898791
   0.250018275   0.999890218   0.750080508
   0.249860150   0.499939861   0.250101209
   0.250018275   0.500109782   0.749919492
   0.750139850   0.000060139   0.249898791
   0.749981725   0.999890218   0.750080508
   0.750139850   0.499939861   0.250101209
   0.749981725   0.500109782   0.749919492
   0.249860150   0.249898791   0.000060139
   0.249860150   0.250101209   0.499939861
   0.250018275   0.750080508   0.999890218
   0.250018275   0.749919492   0.500109782
   0.750139850   0.249898791   0.000060139
   0.750139850   0.250101209   0.499939861
   0.749981725   0.750080508   0.999890218
   0.749981725   0.749919492   0.500109782
   0.250097355   0.250000000   0.250000000
   0.249989520   0.250000000   0.750000000
   0.249989520   0.750000000   0.250000000
   0.249709357   0.750000000   0.750000000
   0.749902645   0.250000000   0.250000000
   0.750010480   0.250000000   0.750000000
   0.750010480   0.750000000   0.250000000
   0.750290643   0.750000000   0.750000000
   0.250109957   0.000060286   0.000060286
   0.249897002   0.000014697   0.499985303
   0.249897002   0.499985303   0.000014697
   0.250109957   0.499939714   0.499939714
   0.749890043   0.000060286   0.000060286
   0.750102998   0.000014697   0.499985303
   0.750102998   0.499985303   0.000014697
   0.749890043   0.499939714   0.499939714
   0.000000000   0.250196124   0.999942272
   0.000000000   0.249803876   0.500057728
   0.000000000   0.749756632   0.000015343
   0.000000000   0.750243368   0.499984657
   0.500000000   0.249939816   0.000042738
   0.500000000   0.250060184   0.499957262
   0.500000000   0.750063025   0.000298997
   0.500000000   0.749936975   0.499701003
   0.000000000   0.999942272   0.250196124
   0.000000000   0.000015343   0.749756632
   0.000000000   0.500057728   0.249803876
   0.000000000   0.499984657   0.750243368
   0.500000000   0.000042738   0.249939816
   0.500000000   0.000298997   0.750063025
   0.500000000   0.499957262   0.250060184
   0.500000000   0.499701003   0.749936975
Mg28Ni4O32
   1.00000000
   8.442102386  -0.000000000  -0.000000000
  -0.000000000   8.442142817  -0.000030916
  -0.000000000  -0.000030916   8.442142817
  Ni  Mg  O
  4  28  32
Direct configuration=     2
   0.000000000   0.000238604   0.000238604
   0.000000000   0.499761396   0.499761396
   0.000000000   0.250000000   0.250000000
   0.500000000   0.750000000   0.750000000
   0.000000000   0.000188311   0.499811689
   0.000000000   0.499811689   0.000188311
   0.500000000   0.999360248   0.999360248
   0.500000000   0.999374053   0.500625947
   0.500000000   0.500625947   0.999374053
   0.500000000   0.500639752   0.500639752
   0.000000000   0.250000000   0.750000000
   0.000000000   0.750000000   0.250000000
   0.000000000   0.750000000   0.750000000
   0.500000000   0.250000000   0.250000000
   0.500000000   0.250000000   0.750000000
   0.500000000   0.750000000   0.250000000
   0.249279216   0.000303136   0.249497080
   0.250048429   0.999463385   0.750388485
   0.249279216   0.499696864   0.250502920
   0.250048429   0.500536615   0.749611515
   0.750720784   0.000303136   0.249497080
   0.749951571   0.999463385   0.750388485
   0.750720784   0.499696864   0.250502920
   0.749951571   0.500536615   0.749611515
   0.249279216   0.249497080   0.000303136
   0.249279216   0.250502920   0.499696864
   0.250048429   0.750388485   0.999463385
   0.250048429   0.749611515   0.500536615
   0.750720784   0.249497080   0.000303136
   0.750720784   0.250502920   0.499696864
   0.749951571   0.750388485   0.999463385
   0.749951571   0.749611515   0.500536615
   0.250431088   0.250000000   0.250000000
   0.249898330   0.250000000   0.750000000
   0.249898330   0.750000000   0.250000000
   0.248480592   0.750000000   0.750000000
   0.749568912   0.250000000   0.250000000
   0.750101670   0.250000000   0.750000000
   0.750101670   0.750000000   0.250000000
   0.751519408   0.750000000   0.750000000
   0.250524730   0.000306478   0.000306478
   0.249493246   0.000061969   0.499938031
   0.249493246   0.499938031   0.000061969
   0.250524730   0.499693522   0.499693522
   0.749475270   0.000306478   0.000306478
   0.750506754   0.000061969   0.499938031
   0.750506754   0.499938031   0.000061969
   0.749475270   0.499693522   0.499693522
   0.000000000   0.250985517   0.999740881
   0.000000000   0.249014483   0.500259119
   0.000000000   0.748780316   0.000091279
   0.000000000   0.751219684   0.499908721
   0.500000000   0.249684652   0.000234406
   0.500000000   0.250315348   0.499765594
   0.500000000   0.750338856   0.001519356
   0.500000000   0.749661144   0.498480644
   0.000000000   0.999740881   0.250985517
   0.000000000   0.000091279   0.748780316
   0.000000000   0.500259119   0.249014483
   0.000000000   0.499908721   0.751219684
   0.500000000   0.000234406   0.249684652
   0.500000000   0.001519356   0.750338856
   0.500000000   0.499765594   0.250315348
   0.500000000   0.498480644   0.749661144
Mg28Ni4O32
   1.00000000
   8.442614012  -0.000000000  -0.000000000
  -0.000000000   8.442665633  -0.000039422
  -0.000000000  -0.000039422   8.442665633
  Ni  Mg  O
  4  28  32
Direct configuration=     3
   0.000000000   0.000246211   0.000246211
   0.000000000   0.499753789   0.499753789
   0.000000000   0.250000000   0.250000000
   0.500000000   0.750000000   0.750000000
   0.000000000   0.000186724   0.499813276
   0.000000000   0.499813276   0.000186724
   0.500000000   0.999334301   0.999334301
   0.500000000   0.999348548   0.500651452
   0.500000000   0.500651452   0.999348548
   0.500000000   0.500665699   0.500665699
   0.000000000   0.250000000   0.750000000
   0.000000000   0.750000000   0.250000000
   0.000000000   0.750000000   0.750000000
   0.500000000   0.250000000   0.250000000
   0.500000000   0.250000000   0.750000000
   0.500000000   0.750000000   0.250000000
   0.249224782   0.000320095   0.249476834
   0.250010123   0.999450317   0.750394837
   0.249224782   0.499679905   0.250523166
   0.250010123   0.500549683   0.749605163
   0.750775218   0.000320095   0.249476834
   0.749989877   0.999450317   0.750394837
   0.750775218   0.499679905   0.250523166
   0.749989877   0.500549683   0.749605163
   0.249224782   0.249476834   0.000320095
   0.249224782   0.250523166   0.499679905
   0.250010123   0.750394837   0.999450317
   0.250010123   0.749605163   0.500549683
   0.750775218   0.249476834   0.000320095
   0.750775218   0.250523166   0.499679905
   0.749989877   0.750394837   0.999450317
   0.749989877   0.749605163   0.500549683
   0.250398445   0.250000000   0.250000000
   0.249846253   0.250000000   0.750000000
   0.249846253   0.750000000   0.250000000
   0.248348946   0.750000000   0.750000000
   0.749601555   0.250000000   0.250000000
   0.750153747   0.250000000   0.750000000
   0.750153747   0.750000000   0.250000000
   0.751651054   0.750000000   0.750000000
   0.250522500   0.000324150   0.000324150
   0.249478359   0.000054172   0.499945828
   0.249478359   0.499945828   0.000054172
   0.250522500   0.499675850   0.499675850
   0.749477500   0.000324150   0.000324150
   0.750521641   0.000054172   0.499945828
   0.750521641   0.499945828   0.000054172
   0.749477500   0.499675850   0.499675850
   0.000000000   0.251035057   0.999755987
   0.000000000   0.248964943   0.500244013
   0.000000000   0.748720600   0.000109757
   0.000000000   0.751279400   0.499890243
   0.500000000   0.249657792   0.000264262
   0.500000000   0.250342208   0.499735738
   0.500000000   0.750375103   0.001611449
   0.500000000   0.749624897   0.498388551
   0.000000000   0.999755987   0.251035057
   0.000000000   0.000109757   0.748720600
   0.000000000   0.500244013   0.248964943
   0.000000000   0.499890243   0.751279400
   0.500000000   0.000264262   0.249657792
   0.500000000   0.001611449   0.750375103
   0.500000000   0.499735738   0.250342208
   0.500000000   0.498388551   0.749624897
Mg28Ni4O32
   1.00000000
   8.451914076   0.000000000  -0.000000000
   0.000000000   8.452173322  -0.000196565
  -0.000000000  -0.000196565   8.452173322
  Ni  Mg  O
  4  28  32
Direct configuration=     4
   0.000000000   0.000278692   0.000278692
   1.000000000   0.499721308   0.499721308
   0.000000000   0.250000000   0.250000000
   0.500000000   0.750000000   0.750000000
   0.000000000   0.000066014   0.499933986
   0.000000000   0.499933986   0.000066014
   0.500000000   0.999174176   0.999174176
   0.500000000   0.999183108   0.500816892
   0.500000000   0.500816892   0.999183108
   0.500000000   0.500825824   0.500825824
   0.000000000   0.250000000   0.750000000
   0.000000000   0.750000000   0.250000000
   0.000000000   0.750000000   0.750000000
   0.500000000   0.250000000   0.250000000
   0.500000000   0.250000000   0.750000000
   0.500000000   0.750000000   0.250000000
   0.248550915   0.000493200   0.249347753
   0.249246658   0.999480519   0.750328266
   0.248550915   0.499506800   0.250652247
   0.249246658   0.500519481   0.749671734
   0.751449085   0.000493200   0.249347753
   0.750753342   0.999480519   0.750328266
   0.751449085   0.499506800   0.250652247
   0.750753342   0.500519481   0.749671734
   0.248550915   0.249347753   0.000493200
   0.248550915   0.250652247   0.499506800
   0.249246658   0.750328266   0.999480519
   0.249246658   0.749671734   0.500519481
   0.751449085   0.249347753   0.000493200
   0.751449085   0.250652247   0.499506800
   0.750753342   0.750328266   0.999480519
   0.750753342   0.749671734   0.500519481
   0.249545794   0.250000000   0.250000000
   0.248890964   0.250000000   0.750000000
   0.248890964   0.750000000   0.250000000
   0.246620865   0.750000000   0.750000000
   0.750454206   0.250000000   0.250000000
   0.751109036   0.250000000   0.750000000
   0.751109036   0.750000000   0.250000000
   0.753379135   0.750000000   0.750000000
   0.250173350   0.000499416   0.000499416
   0.249457996   0.999874508   0.500125492
   0.249457996   0.500125492   0.999874508
   0.250173350   0.499500584   0.499500584
   0.749826650   0.000499416   0.000499416
   0.750542004   0.999874508   0.500125492
   0.750542004   0.500125492   0.999874508
   0.749826650   0.499500584   0.499500584
   0.000000000   0.251478092   0.000172426
   0.000000000   0.248521908   0.499827574
   0.000000000   0.748209556   0.000421964
   0.000000000   0.751790444   0.499578036
   0.500000000   0.249321668   0.000712079
   0.500000000   0.250678332   0.499287921
   0.500000000   0.750883785   0.002568051
   0.500000000   0.749116215   0.497431949
   0.000000000   0.000172426   0.251478092
   0.000000000   0.000421964   0.748209556
   0.000000000   0.499827574   0.248521908
   0.000000000   0.499578036   0.751790444
   0.500000000   0.000712079   0.249321668
   0.500000000   0.002568051   0.750883785
   0.500000000   0.499287921   0.250678332
   0.500000000   0.497431949   0.749116215
Mg28Ni4O32
   1.00000000
   8.459339458   0.000000000  -0.000000000
   0.000000000   8.459766794  -0.000324062
  -0.000000000  -0.000324062   8.459766794
  Ni  Mg  O
  4  28  32
Direct configuration=     5
   0.000000000   0.000250506   0.000250506
   1.000000000   0.499749494   0.499749494
   0.000000000   0.250000000   0.250000000
   0.500000000   0.750000000   0.750000000
   0.000000000   0.999935283   0.500064717
   0.000000000   0.500064717   0.999935283
   0.500000000   0.999256891   0.999256891
   0.500000000   0.999245260   0.500754740
   0.500000000   0.500754740   0.999245260
   0.500000000   0.500743109   0.500743109
   0.000000000   0.250000000   0.750000000
   0.000000000   0.750000000   0.250000000
   0.000000000   0.750000000   0.750000000
   0.500000000   0.250000000   0.250000000
   0.500000000   0.250000000   0.750000000
   0.500000000   0.750000000   0.250000000
   0.248259698   0.000539681   0.249399822
   0.248660808   0.999666648   0.750186262
   0.248259698   0.499460319   0.250600178
   0.248660808   0.500333352   0.749813738
   0.751740302   0.000539681   0.249399822
   0.751339192   0.999666648   0.750186262
   0.751740302   0.499460319   0.250600178
   0.751339192   0.500333352   0.749813738
   0.248259698   0.249399822   0.000539681
   0.248259698   0.250600178   0.499460319
   0.248660808   0.750186262   0.999666648
   0.248660808   0.749813738   0.500333352
   0.751740302   0.249399822   0.000539681
   0.751740302   0.250600178   0.499460319
   0.751339192   0.750186262   0.999666648
   0.751339192   0.749813738   0.500333352
   0.248783359   0.250000000   0.250000000
   0.248200982   0.250000000   0.750000000
   0.248200982   0.750000000   0.250000000
   0.245811301   0.750000000   0.750000000
   0.751216641   0.250000000   0.250000000
   0.751799018   0.250000000   0.750000000
   0.751799018   0.750000000   0.250000000
   0.754188699   0.750000000   0.750000000
   0.249696426   0.000530706   0.000530706
   0.249596429   0.999727088   0.500272912
   0.249596429   0.500272912   0.999727088
   0.249696426   0.499469294   0.499469294
   0.750303574   0.000530706   0.000530706
   0.750403571   0.999727088   0.500272912
   0.750403571   0.500272912   0.999727088
   0.750303574   0.499469294   0.499469294
   0.000000000   0.251521189   0.000543230
   0.000000000   0.248478811   0.499456770
   0.000000000   0.748198014   0.000634298
   0.000000000   0.751801986   0.499365702
   0.500000000   0.249193555   0.000966825
   0.500000000   0.250806445   0.499033175
   0.500000000   0.751141630   0.002784708
   0.500000000   0.748858370   0.497215292
   0.000000000   0.000543230   0.251521189
   0.000000000   0.000634298   0.748198014
   0.000000000   0.499456770   0.248478811
   0.000000000   0.499365702   0.751801986
   0.500000000   0.000966825   0.249193555
   0.500000000   0.002784708   0.751141630
   0.500000000   0.499033175   0.250806445
   0.500000000   0.497215292   0.748858370
Mg28Ni4O32
   1.00000000
   8.467591791   0.000000000  -0.000000000
   0.000000000   8.468205399  -0.000467808
  -0.000000000  -0.000467808   8.468205399
  Ni  Mg  O
  4  28  32
Direct configuration=     6
   0.000000000   0.000209402   0.000209402
   1.000000000   0.499790598   0.499790598
   0.000000000   0.250000000   0.250000000
   0.500000000   0.750000000   0.750000000
   0.000000000   0.999811002   0.500188998
   0.000000000   0.500188998   0.999811002
   0.500000000   0.999490012   0.999490012
   0.500000000   0.999434742   0.500565258
   0.500000000   0.500565258   0.999434742
   0.500000000   0.500509988   0.500509988
   0.000000000   0.250000000   0.750000000
   0.000000000   0.750000000   0.250000000
   0.000000000   0.750000000   0.750000000
   0.500000000   0.250000000   0.250000000
   0.500000000   0.250000000   0.750000000
   0.500000000   0.750000000   0.250000000
   0.248161602   0.000525779   0.249555112
   0.248143672   0.999950539   0.750020778
   0.248161602   0.499474221   0.250444888
   0.248143672   0.500049461   0.749979222
   0.751838398   0.000525779   0.249555112
   0.751856328   0.999950539   0.750020778
   0.751838398   0.499474221   0.250444888
   0.751856328   0.500049461   0.749979222
   0.248161602   0.249555112   0.000525779
   0.248161602   0.250444888   0.499474221
   0.248143672   0.750020778   0.999950539
   0.248143672   0.749979222   0.500049461
   0.751838398   0.249555112   0.000525779
   0.751838398   0.250444888   0.499474221
   0.751856328   0.750020778   0.999950539
   0.751856328   0.749979222   0.500049461
   0.248042256   0.250000000   0.250000000
   0.247623961   0.250000000   0.750000000
   0.247623961   0.750000000   0.250000000
   0.245506533   0.750000000   0.750000000
   0.751957744   0.250000000   0.250000000
   0.752376039   0.250000000   0.750000000
   0.752376039   0.750000000   0.250000000
   0.754493467   0.750000000   0.750000000
   0.249060508   0.000477572   0.000477572
   0.249829295   0.999597798   0.500402202
   0.249829295   0.500402202   0.999597798
   0.249060508   0.499522428   0.499522428
   0.750939492   0.000477572   0.000477572
   0.750170705   0.999597798   0.500402202
   0.750170705   0.500402202   0.999597798
   0.750939492   0.499522428   0.499522428
   0.000000000   0.251353973   0.000886270
   0.000000000   0.248646027   0.499113730
   0.000000000   0.748469246   0.000806660
   0.000000000   0.751530754   0.499193340
   0.500000000   0.249202427   0.001114164
   0.500000000   0.250797573   0.498885836
   0.500000000   0.751255476   0.002550648
   0.500000000   0.748744524   0.497449352
   0.000000000   0.000886270   0.251353973
   0.000000000   0.000806660   0.748469246
   0.000000000   0.499113730   0.248646027
   0.000000000   0.499193340   0.751530754
   0.500000000   0.001114164   0.249202427
   0.500000000   0.002550648   0.751255476
   0.500000000   0.498885836   0.250797573
   0.500000000   0.497449352   0.748744524
Mg28Ni4O32
   1.00000000
   8.473753812   0.000000000  -0.000000000
   0.000000000   8.474503491  -0.000576982
  -0.000000000  -0.000576982   8.474503491
  Ni  Mg  O
  4  28  32
Direct configuration=     7
   0.000000000   0.000215043   0.000215043
   0.000000000   0.499784957   0.499784957
   0.000000000   0.250000000   0.250000000
   0.500000000   0.750000000   0.750000000
   0.000000000   0.999789125   0.500210875
   0.000000000   0.500210875   0.999789125
   0.500000000   0.999699969   0.999699969
   0.500000000   0.999592953   0.500407047
   0.500000000   0.500407047   0.999592953
   0.500000000   0.500300031   0.500300031
   0.000000000   0.250000000   0.750000000
   0.000000000   0.750000000   0.250000000
   0.000000000   0.750000000   0.750000000
   0.500000000   0.250000000   0.250000000
   0.500000000   0.250000000   0.750000000
   0.500000000   0.750000000   0.250000000
   0.248247123   0.000487674   0.249691245
   0.247982600   0.000132168   0.749970552
   0.248247123   0.499512326   0.250308755
   0.247982600   0.499867832   0.750029448
   0.751752877   0.000487674   0.249691245
   0.752017400   0.000132168   0.749970552
   0.751752877   0.499512326   0.250308755
   0.752017400   0.499867832   0.750029448
   0.248247123   0.249691245   0.000487674
   0.248247123   0.250308755   0.499512326
   0.247982600   0.749970552   0.000132168
   0.247982600   0.750029448   0.499867832
   0.751752877   0.249691245   0.000487674
   0.751752877   0.250308755   0.499512326
   0.752017400   0.749970552   0.000132168
   0.752017400   0.750029448   0.499867832
   0.247775363   0.250000000   0.250000000
   0.247476601   0.250000000   0.750000000
   0.247476601   0.750000000   0.250000000
   0.245780397   0.750000000   0.750000000
   0.752224637   0.250000000   0.250000000
   0.752523399   0.250000000   0.750000000
   0.752523399   0.750000000   0.250000000
   0.754219603   0.750000000   0.750000000
   0.248614418   0.000392936   0.000392936
   0.249984406   0.999569900   0.500430100
   0.249984406   0.500430100   0.999569900
   0.248614418   0.499607064   0.499607064
   0.751385582   0.000392936   0.000392936
   0.750015594   0.999569900   0.500430100
   0.750015594   0.500430100   0.999569900
   0.751385582   0.499607064   0.499607064
   0.000000000   0.251156487   0.000978122
   0.000000000   0.248843513   0.499021878
   0.000000000   0.748779328   0.000852745
   0.000000000   0.751220672   0.499147255
   0.500000000   0.249330893   0.001080810
   0.500000000   0.250669107   0.498919190
   0.500000000   0.751185583   0.002079150
   0.500000000   0.748814417   0.497920850
   0.000000000   0.000978122   0.251156487
   0.000000000   0.000852745   0.748779328
   0.000000000   0.499021878   0.248843513
   0.000000000   0.499147255   0.751220672
   0.500000000   0.001080810   0.249330893
   0.500000000   0.002079150   0.751185583
   0.500000000   0.498919190   0.250669107
   0.500000000   0.497920850   0.748814417
Mg28Ni4O32
   1.00000000
   8.482159062   0.000000000  -0.000000000
   0.000000000   8.483090142  -0.000728035
  -0.000000000  -0.000728035   8.483090142
  Ni  Mg  O
  4  28  32
Direct configuration=     8
   0.000000000   0.000302419   0.000302419
   0.000000000   0.499697581   0.499697581
   1.000000000   0.250000000   0.250000000
   0.500000000   0.750000000   0.750000000
   0.000000000   0.999876302   0.500123698
   0.000000000   0.500123698   0.999876302
   0.500000000   0.999909998   0.999909998
   0.500000000   0.999715491   0.500284509
   0.500000000   0.500284509   0.999715491
   0.500000000   0.500090002   0.500090002
   0.000000000   0.250000000   0.750000000
   0.000000000   0.750000000   0.250000000
   0.000000000   0.750000000   0.750000000
   0.500000000   0.250000000   0.250000000
   0.500000000   0.250000000   0.750000000
   0.500000000   0.750000000   0.250000000
   0.248461797   0.000440987   0.249822929
   0.248092324   0.000234276   0.750049971
   0.248461797   0.499559013   0.250177071
   0.248092324   0.499765724   0.749950029
   0.751538203   0.000440987   0.249822929
   0.751907676   0.000234276   0.750049971
   0.751538203   0.499559013   0.250177071
   0.751907676   0.499765724   0.749950029
   0.248461797   0.249822929   0.000440987
   0.248461797   0.250177071   0.499559013
   0.248092324   0.750049971   0.000234276
   0.248092324   0.749950029   0.499765724
   0.751538203   0.249822929   0.000440987
   0.751538203   0.250177071   0.499559013
   0.751907676   0.750049971   0.000234276
   0.751907676   0.749950029   0.499765724
   0.247895059   0.250000000   0.250000000
   0.247676304   0.250000000   0.750000000
   0.247676304   0.750000000   0.250000000
   0.246568782   0.750000000   0.750000000
   0.752104941   0.250000000   0.250000000
   0.752323696   0.250000000   0.750000000
   0.752323696   0.750000000   0.250000000
   0.753431218   0.750000000   0.750000000
   0.248200495   0.000280534   0.000280534
   0.250073267   0.999636624   0.500363376
   0.250073267   0.500363376   0.999636624
   0.248200495   0.499719466   0.499719466
   0.751799505   0.000280534   0.000280534
   0.749926733   0.999636624   0.500363376
   0.749926733   0.500363376   0.999636624
   0.751799505   0.499719466   0.499719466
   0.000000000   0.250955733   0.000844532
   0.000000000   0.249044267   0.499155468
   0.000000000   0.749130859   0.000805601
   0.000000000   0.750869141   0.499194399
   0.500000000   0.249584623   0.000880055
   0.500000000   0.250415377   0.499119945
   0.500000000   0.750960835   0.001330227
   0.500000000   0.749039165   0.498669773
   0.000000000   0.000844532   0.250955733
   0.000000000   0.000805601   0.749130859
   0.000000000   0.499155468   0.249044267
   0.000000000   0.499194399   0.750869141
   0.500000000   0.000880055   0.249584623
   0.500000000   0.001330227   0.750960835
   0.500000000   0.499119945   0.250415377
   0.500000000   0.498669773   0.749039165
Mg28Ni4O32
   1.00000000
   8.490924292   0.000000000  -0.000000000
   0.000000000   8.492042190  -0.000888164
  -0.000000000  -0.000888164   8.492042190
  Ni  Mg  O
  4  28  32
Direct configuration=     9
   0.000000000   0.000479434   0.000479434
   0.000000000   0.499520566   0.499520566
   1.000000000   0.250000000   0.250000000
   0.500000000   0.750000000   0.750000000
   1.000000000   0.000079851   0.499920149
   0.000000000   0.499920149   0.000079851
   0.500000000   0.999966897   0.999966897
   0.500000000   0.999673444   0.500326556
   0.500000000   0.500326556   0.999673444
   0.500000000   0.500033103   0.500033103
   0.000000000   0.250000000   0.750000000
   0.000000000   0.750000000   0.250000000
   1.000000000   0.750000000   0.750000000
   0.500000000   0.250000000   0.250000000
   0.500000000   0.250000000   0.750000000
   0.500000000   0.750000000   0.250000000
   0.248705623   0.000418297   0.249860250
   0.248538892   0.000128618   0.750288053
   0.248705623   0.499581703   0.250139750
   0.248538892   0.499871382   0.749711947
   0.751294377   0.000418297   0.249860250
   0.751461108   0.000128618   0.750288053
   0.751294377   0.499581703   0.250139750
   0.751461108   0.499871382   0.749711947
   0.248705623   0.249860250   0.000418297
   0.248705623   0.250139750   0.499581703
   0.248538892   0.750288053   0.000128618
   0.248538892   0.749711947   0.499871382
   0.751294377   0.249860250   0.000418297
   0.751294377   0.250139750   0.499581703
   0.751461108   0.750288053   0.000128618
   0.751461108   0.749711947   0.499871382
   0.248541845   0.250000000   0.250000000
   0.248289284   0.250000000   0.750000000
   0.248289284   0.750000000   0.250000000
   0.247594148   0.750000000   0.750000000
   0.751458155   0.250000000   0.250000000
   0.751710716   0.250000000   0.750000000
   0.751710716   0.750000000   0.250000000
   0.752405852   0.750000000   0.750000000
   0.248097168   0.000216799   0.000216799
   0.249981854   0.999809741   0.500190259
   0.249981854   0.500190259   0.999809741
   0.248097168   0.499783201   0.499783201
   0.751902832   0.000216799   0.000216799
   0.750018146   0.999809741   0.500190259
   0.750018146   0.500190259   0.999809741
   0.751902832   0.499783201   0.499783201
   1.000000000   0.250917951   0.000450602
   0.000000000   0.249082049   0.499549398
   0.000000000   0.749283954   0.000646693
   0.000000000   0.750716046   0.499353307
   0.500000000   0.249841543   0.000552241
   0.500000000   0.250158457   0.499447759
   0.500000000   0.750674814   0.000675455
   0.500000000   0.749325186   0.499324545
   0.000000000   0.000450602   0.250917951
   1.000000000   0.000646693   0.749283954
   0.000000000   0.499549398   0.249082049
   0.000000000   0.499353307   0.750716046
   0.500000000   0.000552241   0.249841543
   0.500000000   0.000675455   0.750674814
   0.500000000   0.499447759   0.250158457
   0.500000000   0.499324545   0.749325186
Mg28Ni4O32
   1.00000000
   8.496565553   0.000000000  -0.000000000
   0.000000000   8.497804629  -0.000994857
  -0.000000000  -0.000994857   8.497804629
  Ni  Mg  O
  4  28  32
Direct configuration=     10
   0.000000000   0.000648179   0.000648179
   0.000000000   0.499351821   0.499351821
   1.000000000   0.250000000   0.250000000
   0.500000000   0.750000000   0.750000000
   1.000000000   0.000278427   0.499721573
   0.000000000   0.499721573   0.000278427
   0.500000000   0.999825517   0.999825517
   0.500000000   0.999472158   0.500527842
   0.500000000   0.500527842   0.999472158
   0.500000000   0.500174483   0.500174483
   1.000000000   0.250000000   0.750000000
   0.000000000   0.750000000   0.250000000
   1.000000000   0.750000000   0.750000000
   0.500000000   0.250000000   0.250000000
   0.500000000   0.250000000   0.750000000
   0.500000000   0.750000000   0.250000000
   0.248850238   0.000423143   0.249788787
   0.249095346   0.999856137   0.750542681
   0.248850238   0.499576857   0.250211213
   0.249095346   0.500143863   0.749457319
   0.751149762   0.000423143   0.249788787
   0.750904654   0.999856137   0.750542681
   0.751149762   0.499576857   0.250211213
   0.750904654   0.500143863   0.749457319
   0.248850238   0.249788787   0.000423143
   0.248850238   0.250211213   0.499576857
   0.249095346   0.750542681   0.999856137
   0.249095346   0.749457319   0.500143863
   0.751149762   0.249788787   0.000423143
   0.751149762   0.250211213   0.499576857
   0.750904654   0.750542681   0.999856137
   0.750904654   0.749457319   0.500143863
   0.249386553   0.250000000   0.250000000
   0.249023129   0.250000000   0.750000000
   0.249023129   0.750000000   0.250000000
   0.248293013   0.750000000   0.750000000
   0.750613447   0.250000000   0.250000000
   0.750976871   0.250000000   0.750000000
   0.750976871   0.750000000   0.250000000
   0.751706987   0.750000000   0.750000000
   0.248415360   0.000253688   0.000253688
   0.249745179   0.999995812   0.500004188
   0.249745179   0.500004188   0.999995812
   0.248415360   0.499746312   0.499746312
   0.751584640   0.000253688   0.000253688
   0.750254821   0.999995812   0.500004188
   0.750254821   0.500004188   0.999995812
   0.751584640   0.499746312   0.499746312
   1.000000000   0.251070570   0.000020134
   1.000000000   0.248929430   0.499979866
   0.000000000   0.749144084   0.000448406
   0.000000000   0.750855916   0.499551594
   0.500000000   0.249926280   0.000271123
   0.500000000   0.250073720   0.499728877
   0.500000000   0.750511463   0.000507621
   0.500000000   0.749488537   0.499492379
   0.000000000   0.000020134   0.251070570
   0.000000000   0.000448406   0.749144084
   0.000000000   0.499979866   0.248929430
   0.000000000   0.499551594   0.750855916
   0.500000000   0.000271123   0.249926280
   0.500000000   0.000507621   0.750511463
   0.500000000   0.499728877   0.250073720
   0.500000000   0.499492379   0.749488537
Mg28Ni4O32
   1.00000000
   8.497750160   0.000000000  -0.000000000
   0.000000000   8.499018485  -0.001021951
  -0.000000000  -0.001021951   8.499018485
  Ni  Mg  O
  4  28  32
Direct configuration=     11
   0.000000000   0.000691383   0.000691383
   0.000000000   0.499308617   0.499308617
   1.000000000   0.250000000   0.250000000
   0.500000000   0.750000000   0.750000000