Mg28Ni4O32
   1.00000000
   8.440345249   0.000000078   0.000003569
   0.000000078   8.440345249  -0.000003569
   0.000003569  -0.000003569   8.440334787
  Ni  Mg  O
  4  28  32
Direct configuration=     1
   0.000120840   0.000120840   0.000000000
   0.999996967   0.249970894   0.249909709
   0.249970894   0.999996967   0.750090291
   0.749909639   0.749909639   0.500000000
   0.999958697   0.999958697   0.500000000
   0.999983666   0.499916156   0.000096241
   0.999899768   0.500019548   0.499898722
   0.499916156   0.999983666   0.999903759
   0.500019548   0.999899768   0.500101278
   0.500029515   0.500029515   0.000000000
   0.500107606   0.500107606   0.500000000
   0.000088877   0.249795103   0.750052710
   0.999880873   0.750059177   0.250070860
   0.999984859   0.750167153   0.749967091
   0.500004000   0.249998217   0.250019345
   0.499925523   0.249937391   0.749964665
   0.500107631   0.749984377   0.250118036
   0.500025991   0.750048308   0.749902656
   0.249795103   0.000088877   0.249947290
   0.249937391   0.499925523   0.250035335
   0.249998217   0.500004000   0.749980655
   0.750167153   0.999984859   0.250032909
   0.750059177   0.999880873   0.749929140
   0.750048308   0.500025991   0.250097344
   0.749984377   0.500107631   0.749881964
   0.249843394   0.249843394   0.000000000
   0.249936169   0.249936169   0.500000000
   0.249945588   0.750166618   0.999917542
   0.249976869   0.750103829   0.500099728
   0.750166618   0.249945588   0.000082458
   0.750103829   0.249976869   0.499900272
   0.750068773   0.750068773   0.000000000
   0.250183711   0.249901248   0.249952243
   0.249901248   0.250183711   0.750047757
   0.249952251   0.750051527   0.250022497
   0.249947034   0.749820953   0.750002041
   0.749820953   0.249947034   0.249997959
   0.750051527   0.249952251   0.749977503
   0.750048689   0.750001228   0.249730351
   0.750001228   0.750048689   0.750269649
   0.250086573   0.000026475   0.000173584
   0.249972883   0.999938730   0.499790748
   0.249915352   0.499995803   0.999937813
   0.249979676   0.500035610   0.500052781
   0.749852832   0.999999244   0.999991252
   0.750041989   0.000294434   0.500067061
   0.750076366   0.500029900   0.999995318
   0.750008781   0.499754541   0.500015599
   0.000026475   0.250086573   0.999826416
   0.999938730   0.249972883   0.500209252
   0.999999244   0.749852832   0.000008748
   0.000294434   0.750041989   0.499932939
   0.499995803   0.249915352   0.000062187
   0.500035610   0.249979676   0.499947219
   0.500029900   0.750076366   0.000004682
   0.499754541   0.750008781   0.499984401
   0.000089595   0.999871728   0.250063236
   0.999871728   0.000089595   0.749936764
   0.000026498   0.500182437   0.249910645
   0.000067550   0.499945458   0.750080929
   0.499945458   0.000067550   0.249919071
   0.500182437   0.000026498   0.750089355
   0.499997299   0.499941586   0.249990239
   0.499941586   0.499997299   0.750009761
Mg28Ni4O32
   1.00000000
   8.442144990   0.000000433   0.000022809
   0.000000433   8.442144990  -0.000022809
   0.000022809  -0.000022809   8.442080295
  Ni  Mg  O
  4  28  32
Direct configuration=     2
   0.000627975   0.000627975   0.000000000
   0.999985502   0.249841996   0.249527105
   0.249841996   0.999985502   0.750472895
   0.749528530   0.749528530   0.500000000
   0.999781069   0.999781069   0.500000000
   0.999924220   0.499589411   0.000468717
   0.999506445   0.500099409   0.499505499
   0.499589411   0.999924220   0.999531283
   0.500099409   0.999506445   0.500494501
   0.500151941   0.500151941   0.000000000
   0.500532457   0.500532457   0.500000000
   0.000443113   0.248916641   0.750260046
   0.999405918   0.750317941   0.250363854
   0.999932059   0.750865752   0.749850577
   0.500019888   0.249925033   0.250092136
   0.499643051   0.249667240   0.749817580
   0.500525188   0.749977353   0.250592146
   0.500126941   0.750254397   0.749527375
   0.248916641   0.000443113   0.249739954
   0.249667240   0.499643051   0.250182420
   0.249925033   0.500019888   0.749907864
   0.750865752   0.999932059   0.250149423
   0.750317941   0.999405918   0.749636146
   0.750254397   0.500126941   0.250472625
   0.749977353   0.500525188   0.749407854
   0.249187158   0.249187158   0.000000000
   0.249652468   0.249652468   0.500000000
   0.249684036   0.750870254   0.999598948
   0.249831420   0.750570486   0.500503950
   0.750870254   0.249684036   0.000401052
   0.750570486   0.249831420   0.499496050
   0.750394267   0.750394267   0.000000000
   0.250909741   0.249473629   0.249734428
   0.249473629   0.250909741   0.750265572
   0.249747099   0.750272876   0.250096874
   0.249714556   0.749122860   0.750036721
   0.749122860   0.249714556   0.249963279
   0.750272876   0.249747099   0.749903126
   0.750263950   0.750008962   0.248607513
   0.750008962   0.750263950   0.751392487
   0.250407366   0.000163359   0.000895649
   0.249846324   0.999703370   0.498933013
   0.249553180   0.499954309   0.999701334
   0.249883760   0.500154752   0.500250269
   0.749294038   0.000023540   0.999976849
   0.750239961   0.001522282   0.500338936
   0.750410980   0.500130599   0.999997098
   0.750055227   0.498719038   0.500055614
   0.000163359   0.250407366   0.999104351
   0.999703370   0.249846324   0.501066987
   0.000023540   0.749294038   0.000023151
   0.001522282   0.750239961   0.499661064
   0.499954309   0.249553180   0.000298666
   0.500154752   0.249883760   0.499749731
   0.500130599   0.750410980   0.000002902
   0.498719038   0.750055227   0.499944386
   0.000448771   0.999348978   0.250321186
   0.999348978   0.000448771   0.749678814
   0.000111988   0.500938318   0.249552149
   0.000320464   0.499739467   0.750396921
   0.499739467   0.000320464   0.249603079
   0.500938318   0.000111988   0.750447851
   0.500016529   0.499720167   0.249976450
   0.499720167   0.500016529   0.750023550
Mg28Ni4O32
   1.00000000
   8.442666540   0.000000498   0.000028854
   0.000000498   8.442666540  -0.000028854
   0.000028854  -0.000028854   8.442586280
  Ni  Mg  O
  4  28  32
Direct configuration=     3
   0.000675508   0.000675508   0.000000000
   0.999985916   0.249824382   0.249486916
   0.249824382   0.999985916   0.750513084
   0.749488547   0.749488547   0.500000000
   0.999761751   0.999761751   0.500000000
   0.999927045   0.499583617   0.000473738
   0.999496329   0.500104220   0.499496914
   0.499583617   0.999927045   0.999526262
   0.500104220   0.999496329   0.500503086
   0.500162184   0.500162184   0.000000000
   0.500544998   0.500544998   0.500000000
   0.000457718   0.248822690   0.750264683
   0.999385573   0.750348530   0.250385139
   0.999936483   0.750928038   0.749859489
   0.500020078   0.249861248   0.250090919
   0.499643434   0.249638388   0.749805359
   0.500532041   0.750028003   0.250613960
   0.500127667   0.750274875   0.749525019
   0.248822690   0.000457718   0.249735317
   0.249638388   0.499643434   0.250194641
   0.249861248   0.500020078   0.749909081
   0.750928038   0.999936483   0.250140511
   0.750348530   0.999385573   0.749614861
   0.750274875   0.500127667   0.250474981
   0.750028003   0.500532041   0.749386040
   0.249131671   0.249131671   0.000000000
   0.249612457   0.249612457   0.500000000
   0.249631683   0.750936607   0.999595211
   0.249777563   0.750639045   0.500528522
   0.750936607   0.249631683   0.000404789
   0.750639045   0.249777563   0.499471478
   0.750456355   0.750456355   0.000000000
   0.250931717   0.249425249   0.249700775
   0.249425249   0.250931717   0.750299225
   0.249723494   0.750298311   0.250084750
   0.249682301   0.749110832   0.750064031
   0.749110832   0.249682301   0.249935969
   0.750298311   0.249723494   0.749915250
   0.750292414   0.750014835   0.248518320
   0.750014835   0.750292414   0.751481680
   0.250396575   0.000197231   0.000952505
   0.249822874   0.999704280   0.498875409
   0.249514565   0.499930680   0.999703073
   0.249862595   0.500138229   0.500246121
   0.749298253   0.000051106   0.999995552
   0.750276888   0.001621323   0.500352505
   0.750454010   0.500116808   0.000014524
   0.750069916   0.498624375   0.500036861
   0.000197231   0.250396575   0.999047495
   0.999704280   0.249822874   0.501124591
   0.000051106   0.749298253   0.000004448
   0.001621323   0.750276888   0.499647495
   0.499930680   0.249514565   0.000296927
   0.500138229   0.249862595   0.499753879
   0.500116808   0.750454010   0.999985476
   0.498624375   0.750069916   0.499963139
   0.000461622   0.999318272   0.250337492
   0.999318272   0.000461622   0.749662508
   0.000097459   0.500996531   0.249536436
   0.000314425   0.499742234   0.750403307
   0.499742234   0.000314425   0.249596693
   0.500996531   0.000097459   0.750463564
   0.500044125   0.499721828   0.249998241
   0.499721828   0.500044125   0.750001759
Mg28Ni4O32
   1.00000000
   8.450684023   0.000001377   0.000123011
   0.000001377   8.450684023  -0.000123011
   0.000123011  -0.000123011   8.450364812
  Ni  Mg  O
  4  28  32
Direct configuration=     4
   0.001167422   0.001167422   1.000000000
   0.000003901   0.249618030   0.249044681
   0.249618030   0.000003901   0.750955319
   0.749044405   0.749044405   0.500000000
   0.999548733   0.999548733   0.500000000
   0.000007544   0.499679563   0.000344697
   0.999560102   0.500132664   0.499574043
   0.499679563   0.000007544   0.999655303
   0.500132664   0.999560102   0.500425957
   0.500262298   0.500262298   1.000000000
   0.500489715   0.500489715   0.500000000
   0.000494134   0.247789174   0.750214578
   0.999323509   0.750689794   0.250559021
   0.000034535   0.751557309   0.750072195
   0.500011012   0.248868062   0.250027076
   0.499809302   0.249335985   0.749690847
   0.500395683   0.750854669   0.250687852
   0.500070293   0.750482413   0.749718405
   0.247789174   0.000494134   0.249785422
   0.249335985   0.499809302   0.250309153
   0.248868062   0.500011012   0.749972924
   0.751557309   0.000034535   0.249927805
   0.750689794   0.999323509   0.749440979
   0.750482413   0.500070293   0.250281595
   0.750854669   0.500395683   0.749312148
   0.248620087   0.248620087   1.000000000
   0.249118427   0.249118427   0.500000000
   0.248933735   0.751613987   0.999724949
   0.248990194   0.751490127   0.500705819
   0.751613987   0.248933735   0.000275051
   0.751490127   0.248990194   0.499294181
   0.751286140   0.751286140   0.000000000
   0.250848060   0.248882670   0.249285036
   0.248882670   0.250848060   0.750714964
   0.249445490   0.750598109   0.249839735
   0.249267601   0.749342040   0.750500830
   0.749342040   0.249267601   0.249499170
   0.750598109   0.249445490   0.750160265
   0.750634047   0.750129921   0.247737203
   0.750129921   0.750634047   0.752262797
   0.250029025   0.000666181   0.001462075
   0.249504380   0.999865791   0.498445722
   0.249088053   0.499581313   0.999872578
   0.249546588   0.499799447   0.500066196
   0.749715496   0.000493746   0.000307958
   0.750766792   0.002489835   0.500405676
   0.750975289   0.499829656   0.000281870
   0.750299996   0.497689849   0.499712599
   0.000666181   0.250029025   0.998537925
   0.999865791   0.249504380   0.501554278
   0.000493746   0.749715496   0.999692042
   0.002489835   0.750766792   0.499594324
   0.499581313   0.249088053   0.000127422
   0.499799447   0.249546588   0.499933804
   0.499829656   0.750975289   0.999718130
   0.497689849   0.750299996   0.500287401
   0.000451464   0.999128922   0.250454978
   0.999128922   0.000451464   0.749545022
   0.999819690   0.501502639   0.249487043
   0.000064272   0.499912892   0.750319412
   0.499912892   0.000064272   0.249680588
   0.501502639   0.999819690   0.750512957
   0.500472512   0.499875285   0.250351298
   0.499875285   0.500472512   0.749648702
Mg28Ni4O32
   1.00000000
   8.456415388   0.000001888   0.000191380
   0.000001888   8.456415388  -0.000191380
   0.000191380  -0.000191380   8.455924754
  Ni  Mg  O
  4  28  32
Direct configuration=     5
   0.001351497   0.001351497   1.000000000
   0.000027625   0.249533404   0.248857105
   0.249533404   0.000027625   0.751142895
   0.748847742   0.748847742   0.500000000
   0.999461816   0.999461816   0.500000000
   0.000077965   0.499841401   0.000158645
   0.999718743   0.500120610   0.499722346
   0.499841401   0.000077965   0.999841355
   0.500120610   0.999718743   0.500277654
   0.500297567   0.500297567   1.000000000
   0.500302878   0.500302878   0.500000000
   0.000418739   0.247363033   0.750110429
   0.999414718   0.750819837   0.250579553
   0.000104252   0.751787260   0.750243467
   0.499995332   0.248251755   0.249960256
   0.499995660   0.249238600   0.749660314
   0.500170886   0.751385941   0.250582791
   0.499984269   0.750543920   0.749980523
   0.247363033   0.000418739   0.249889571
   0.249238600   0.499995660   0.250339686
   0.248251755   0.499995332   0.750039744
   0.751787260   0.000104252   0.249756533
   0.750819837   0.999414718   0.749420447
   0.750543920   0.499984269   0.250019477
   0.751385941   0.500170886   0.749417209
   0.248509905   0.248509905   1.000000000
   0.248872682   0.248872682   0.500000000
   0.248569053   0.751850131   0.999915794
   0.248539079   0.751910435   0.500719492
   0.751850131   0.248569053   0.000084206
   0.751910435   0.248539079   0.499280508
   0.751739377   0.751739377   0.000000000
   0.250540730   0.248656999   0.249093514
   0.248656999   0.250540730   0.750906486
   0.249305381   0.750749272   0.249654375
   0.249029858   0.749739704   0.750792670
   0.749739704   0.249029858   0.249207330
   0.750749272   0.249305381   0.750345625
   0.750794214   0.750241047   0.247605389
   0.750241047   0.750794214   0.752394611
   0.249688096   0.000920785   0.001578327
   0.249319093   0.000056459   0.498446734
   0.248909544   0.499388132   0.000058725
   0.249326234   0.499543380   0.499896317
   0.750196604   0.000781135   0.000510266
   0.751027486   0.002620517   0.500342146
   0.751235841   0.499607643   0.000425990
   0.750462732   0.497407718   0.499498571
   0.000920785   0.249688096   0.998421673
   0.000056459   0.249319093   0.501553266
   0.000781135   0.750196604   0.999489734
   0.002620517   0.751027486   0.499657854
   0.499388132   0.248909544   0.999941275
   0.499543380   0.249326234   0.500103683
   0.499607643   0.751235841   0.999574010
   0.497407718   0.750462732   0.500501429
   0.000319512   0.999177781   0.250456197
   0.999177781   0.000319512   0.749543803
   0.999630749   0.501595815   0.249558173
   0.999821643   0.500096600   0.750163189
   0.500096600   0.999821643   0.249836811
   0.501595815   0.999630749   0.750441827
   0.500725842   0.500037341   0.250565072
   0.500037341   0.500725842   0.749434928
Mg28Ni4O32
   1.00000000
   8.463216950   0.000002348   0.000273736
   0.000002348   8.463216950  -0.000273736
   0.000273736  -0.000273736   8.462520821
  Ni  Mg  O
  4  28  32
Direct configuration=     6
   0.001433530   0.001433530   1.000000000
   0.000068141   0.249508892   0.248748479
   0.249508892   0.000068141   0.751251521
   0.748719919   0.748719919   0.500000000
   0.999419546   0.999419546   0.500000000
   0.000153121   0.500053841   0.999936964
   0.999934218   0.500081267   0.499894317
   0.500053841   0.000153121   0.000063036
   0.500081267   0.999934218   0.500105683
   0.500315228   0.500315228   1.000000000
   0.500006278   0.500006278   0.500000000
   0.000294894   0.247147724   0.749958904
   0.999570576   0.750850842   0.250528888
   0.000154530   0.751893801   0.750408983
   0.499969369   0.247746567   0.249879660
   0.500205536   0.249243445   0.749664947
   0.499867644   0.751827931   0.250372562
   0.499853437   0.750533118   0.750330136
   0.247147724   0.000294894   0.250041096
   0.249243445   0.500205536   0.250335053
   0.247746567   0.499969369   0.750120340
   0.751893801   0.000154530   0.249591017
   0.750850842   0.999570576   0.749471112
   0.750533118   0.499853437   0.249669864
   0.751827931   0.499867644   0.749627438
   0.248604208   0.248604208   1.000000000
   0.248702199   0.248702199   0.500000000
   0.248332456   0.751919356   0.000168995
   0.248212339   0.752188739   0.500684560
   0.751919356   0.248332456   0.999831005
   0.752188739   0.248212339   0.499315440
   0.752084744   0.752084744   0.000000000
   0.250058611   0.248552854   0.249000920
   0.248552854   0.250058611   0.750999080
   0.249187896   0.750874907   0.249479418
   0.248808269   0.750300085   0.751069646
   0.750300085   0.248808269   0.248930354
   0.750874907   0.249187896   0.750520582
   0.750889774   0.750401467   0.247803842
   0.750401467   0.750889774   0.752196158
   0.249320499   0.001095301   0.001530141
   0.249155510   0.000293069   0.498675739
   0.248817247   0.499273750   0.000275427
   0.249079489   0.499299756   0.499723769
   0.750808556   0.001029388   0.000671545
   0.751209564   0.002343382   0.500201953
   0.751428915   0.499389585   0.000492626
   0.750637679   0.497410770   0.499320744
   0.001095301   0.249320499   0.998469859
   0.000293069   0.249155510   0.501324261
   0.001029388   0.750808556   0.999328455
   0.002343382   0.751209564   0.499798047
   0.499273750   0.248817247   0.999724573
   0.499299756   0.249079489   0.500276231
   0.499389585   0.751428915   0.999507374
   0.497410770   0.750637679   0.500679256
   0.000102912   0.999359242   0.250407355
   0.999359242   0.000102912   0.749592645
   0.999483951   0.501497891   0.249682730
   0.999559158   0.500317229   0.749952042
   0.500317229   0.999559158   0.250047958
   0.501497891   0.999483951   0.750317270
   0.500901566   0.500214296   0.250712442
   0.500214296   0.500901566   0.749287558
Mg28Ni4O32
   1.00000000
   8.469527522   0.000002648   0.000351407
   0.000002648   8.469527522  -0.000351407
   0.000351407  -0.000351407   8.468637493
  Ni  Mg  O
  4  28  32
Direct configuration=     7
   0.001433016   0.001433016   0.000000000
   0.000115976   0.249557341   0.248725519
   0.249557341   0.000115976   0.751274481
   0.748676718   0.748676718   0.500000000
   0.999421713   0.999421713   0.500000000
   0.000195769   0.500192167   0.999822664
   0.000064263   0.500035412   0.499953763
   0.500192167   0.000195769   0.000177336
   0.500035412   0.000064263   0.500046237
   0.500323925   0.500323925   1.000000000
   0.499752194   0.499752194   0.500000000
   0.000222434   0.247160678   0.749839614
   0.999661911   0.750776731   0.250455328
   0.000142836   0.751908846   0.750471802
   0.499943630   0.247591523   0.249824749
   0.500310330   0.249339730   0.749690292
   0.499655882   0.751958137   0.250189387
   0.499730527   0.750463963   0.750590162
   0.247160678   0.000222434   0.250160386
   0.249339730   0.500310330   0.250309708
   0.247591523   0.499943630   0.750175251
   0.751908846   0.000142836   0.249528198
   0.750776731   0.999661911   0.749544672
   0.750463963   0.499730527   0.249409838
   0.751958137   0.499655882   0.749810613
   0.248831820   0.248831820   1.000000000
   0.248655129   0.248655129   0.500000000
   0.248328533   0.751853708   0.000348818
   0.248164322   0.752235680   0.500673141
   0.751853708   0.248328533   0.999651182
   0.752235680   0.248164322   0.499326859
   0.752194652   0.752194652   0.000000000
   0.249665477   0.248591219   0.249048423
   0.248591219   0.249665477   0.750951577
   0.249111798   0.750952408   0.249417778
   0.248666620   0.750729124   0.751215071
   0.750729124   0.248666620   0.248784929
   0.750952408   0.249111798   0.750582222
   0.750889411   0.750556234   0.248184351
   0.750556234   0.750889411   0.751815649
   0.249133383   0.001113964   0.001403352
   0.249066764   0.000445304   0.498981658
   0.248825374   0.499317303   0.000397695
   0.248887351   0.499203069   0.499661060
   0.751249302   0.001115520   0.000695151
   0.751235304   0.001820069   0.500065071
   0.751504005   0.499294918   0.000419042
   0.750755334   0.497626100   0.499272318
   0.001113964   0.249133383   0.998596648
   0.000445304   0.249066764   0.501018342
   0.001115520   0.751249302   0.999304849
   0.001820069   0.751235304   0.499934929
   0.499317303   0.248825374   0.999602305
   0.499203069   0.248887351   0.500338940
   0.499294918   0.751504005   0.999580958
   0.497626100   0.750755334   0.500727682
   0.999930650   0.999558748   0.250355584
   0.999558748   0.999930650   0.749644416
   0.999474748   0.501305758   0.249758587
   0.999433642   0.500455472   0.749813514
   0.500455472   0.999433642   0.250186486
   0.501305758   0.999474748   0.750241413
   0.500893537   0.500292592   0.250698199
   0.500292592   0.500893537   0.749301801
Mg28Ni4O32
   1.00000000
   8.479241180   0.000003057   0.000472610
   0.000003057   8.479241180  -0.000472610
   0.000472610  -0.000472610   8.478047718
  Ni  Mg  O
  4  28  32
Direct configuration=     8
   0.001409247   0.001409247   0.000000000
   0.000195316   0.249693600   0.248737352
   0.249693600   0.000195316   0.751262648
   0.748666357   0.748666357   0.500000000
   0.999445006   0.999445006   0.500000000
   0.000218900   0.500269990   0.999820306
   0.000096448   0.499975225   0.499860090
   0.500269990   0.000218900   0.000179694
   0.499975225   0.000096448   0.500139910
   0.500343803   0.500343803   0.000000000
   0.499486166   0.499486166   0.500000000
   0.000225870   0.247333387   0.749727396
   0.999653791   0.750585149   0.250367240
   0.000042380   0.751911819   0.750424633
   0.499912558   0.247750557   0.249781686
   0.500307782   0.249543436   0.749730810
   0.499510241   0.751794829   0.250023490
   0.499574899   0.750327328   0.750814960
   0.247333387   0.000225870   0.250272604
   0.249543436   0.500307782   0.250269190
   0.247750557   0.499912558   0.750218314
   0.751911819   0.000042380   0.249575367
   0.750585149   0.999653791   0.749632760
   0.750327328   0.499574899   0.249185040
   0.751794829   0.499510241   0.749976510
   0.249232597   0.249232597   0.000000000
   0.248687587   0.248687587   0.500000000
   0.248551544   0.751698361   0.000488758
   0.248382092   0.752096893   0.500740834
   0.751698361   0.248551544   0.999511242
   0.752096893   0.248382092   0.499259166
   0.752126747   0.752126747   0.000000000
   0.249301983   0.248766350   0.249249211
   0.248766350   0.249301983   0.750750789
   0.249020969   0.751035203   0.249489502
   0.248539911   0.751104213   0.751274957
   0.751104213   0.248539911   0.248725043
   0.751035203   0.249020969   0.750510498
   0.750797770   0.750750645   0.248794831
   0.750750645   0.750797770   0.751205169
   0.249123068   0.000992237   0.001226349
   0.249007667   0.000525161   0.499409670
   0.248917998   0.499563784   0.000428798
   0.248675253   0.499258081   0.499730830
   0.751616032   0.001046146   0.000554914
   0.751109486   0.000935365   0.499913919
   0.751512557   0.499329495   0.000152919
   0.750842968   0.498039185   0.499347523
   0.000992237   0.249123068   0.998773651
   0.000525161   0.249007667   0.500590330
   0.001046146   0.751616032   0.999445086
   0.000935365   0.751109486   0.500086081
   0.499563784   0.248917998   0.999571202
   0.499258081   0.248675253   0.500269170
   0.499329495   0.751512557   0.999847081
   0.498039185   0.750842968   0.500652477
   0.999792316   0.999803159   0.250310824
   0.999803159   0.999792316   0.749689176
   0.999628274   0.501014863   0.249754089
   0.999454621   0.500523501   0.749744660
   0.500523501   0.999454621   0.250255340
   0.501014863   0.999628274   0.750245911
   0.500669882   0.500251955   0.250487634
   0.500251955   0.500669882   0.749512366
Mg28Ni4O32
   1.00000000
   8.489392137   0.000003615   0.000601482
   0.000003615   8.489392137  -0.000601482
   0.000601482  -0.000601482   8.487875146
  Ni  Mg  O
  4  28  32
Direct configuration=     9
   0.001399243   0.001399243   0.000000000
   0.000274494   0.249866530   0.248768835
   0.249866530   0.000274494   0.751231165
   0.748696178   0.748696178   0.500000000
   0.999465152   0.999465152   0.500000000
   0.000203131   0.500192768   0.999999284
   0.999924401   0.499941262   0.499572395
   0.500192768   0.000203131   0.000000716
   0.499941262   0.999924401   0.500427605
   0.500377459   0.500377459   0.000000000
   0.499399106   0.499399106   0.500000000
   0.000366637   0.247606647   0.749705962
   0.999466677   0.750355157   0.250340205
   0.999860210   0.751921176   0.750226557
   0.499901936   0.248277650   0.249786222
   0.500131278   0.249755856   0.749758755
   0.499588965   0.751294520   0.250032355
   0.499478268   0.750190791   0.750815996
   0.247606647   0.000366637   0.250294038
   0.249755856   0.500131278   0.250241245
   0.248277650   0.499901936   0.750213778
   0.751921176   0.999860210   0.249773443
   0.750355157   0.999466677   0.749659795
   0.750190791   0.499478268   0.249184004
   0.751294520   0.499588965   0.749967645
   0.249609927   0.249609927   0.000000000
   0.248802115   0.248802115   0.500000000
   0.248958486   0.751549063   0.000467075
   0.248847266   0.751780506   0.500914120
   0.751549063   0.248958486   0.999532925
   0.751780506   0.248847266   0.499085880
   0.751843699   0.751843699   0.000000000
   0.249278764   0.249033804   0.249542519
   0.249033804   0.249278764   0.750457481
   0.248955641   0.751077930   0.249755545
   0.248532856   0.751102721   0.751157717
   0.751102721   0.248532856   0.248842283
   0.751077930   0.248955641   0.750244455
   0.750621451   0.750840773   0.249291150
   0.750840773   0.750621451   0.750708850
   0.249429683   0.000758025   0.001130170
   0.249028016   0.000409211   0.499710011
   0.249080382   0.499969714   0.000275758
   0.248590076   0.499533770   0.499983404
   0.751591517   0.000766978   0.000233307
   0.750827208   0.000135331   0.499866526
   0.751417465   0.499572238   0.999768016
   0.750792745   0.498416885   0.499554480
   0.000758025   0.249429683   0.998869830
   0.000409211   0.249028016   0.500289989
   0.000766978   0.751591517   0.999766693
   0.000135331   0.750827208   0.500133474
   0.499969714   0.249080382   0.999724242
   0.499533770   0.248590076   0.500016596
   0.499572238   0.751417465   0.000231984
   0.498416885   0.750792745   0.500445520
   0.999834739   0.999933049   0.250320016
   0.999933049   0.999834739   0.749679984
   0.999933218   0.500799893   0.249591680
   0.999718222   0.500410962   0.749855416
   0.500410962   0.999718222   0.250144584
   0.500799893   0.999933218   0.750408320
   0.500256796   0.500023382   0.250108448
   0.500023382   0.500256796   0.749891552
Mg28Ni4O32
   1.00000000
   8.495814424   0.000004367   0.000686162
   0.000004367   8.495814424  -0.000686162
   0.000686163  -0.000686163   8.494084554
  Ni  Mg  O
  4  28  32
Direct configuration=     10
   0.001404063   0.001404063   0.000000000
   0.000310612   0.249974666   0.248804399
   0.249974666   0.000310612   0.751195601
   0.748759155   0.748759155   0.500000000
   0.999462653   0.999462653   0.500000000
   0.000167727   0.500013629   0.000240003
   0.999634671   0.499957347   0.499261615
   0.500013629   0.000167727   0.999759997
   0.499957347   0.999634671   0.500738385
   0.500407163   0.500407163   0.000000000
   0.499547440   0.499547440   0.500000000
   0.000564328   0.247863970   0.749783553
   0.999207566   0.750219966   0.250399021
   0.999693594   0.751899735   0.749984711
   0.499929578   0.248876549   0.249834281
   0.499889867   0.249845113   0.749757406
   0.499855000   0.750741000   0.250229717
   0.499503814   0.750132941   0.750583635
   0.247863970   0.000564328   0.250216447
   0.249845113   0.499889867   0.250242594
   0.248876549   0.499929578   0.750165719
   0.751899735   0.999693594   0.250015289
   0.750219966   0.999207566   0.749600979
   0.750132941   0.499503814   0.249416365
   0.750741000   0.499855000   0.749770283
   0.249762431   0.249762431   0.000000000
   0.248940117   0.248940117   0.500000000
   0.249319066   0.751485627   0.000305086
   0.249292117   0.751442277   0.501092655
   0.751485627   0.249319066   0.999694914
   0.751442277   0.249292117   0.498907345
   0.751486929   0.751486929   0.000000000
   0.249637009   0.249270993   0.249762721
   0.249270993   0.249637009   0.750237279
   0.248963019   0.751039699   0.250104069
   0.248692480   0.750704477   0.750912869
   0.750704477   0.248692480   0.249087131
   0.751039699   0.248963019   0.749895931
   0.750436319   0.750719611   0.249383454
   0.750719611   0.750436319   0.750616546
   0.249907187   0.000560399   0.001164914
   0.249127383   0.000137369   0.499725906
   0.249250397   0.500314072   0.000012186
   0.248719645   0.499893445   0.500289831
   0.751169020   0.000411626   0.999891138
   0.750523092   0.999871987   0.499965608
   0.751246392   0.499917425   0.999491803
   0.750580740   0.498537463   0.499763144
   0.000560399   0.249907187   0.998835086
   0.000137369   0.249127383   0.500274094
   0.000411626   0.751169020   0.000108862
   0.999871987   0.750523092   0.500034392
   0.500314072   0.249250397   0.999987814
   0.499893445   0.248719645   0.499710169
   0.499917425   0.751246392   0.000508197
   0.498537463   0.750580740   0.500236856
   0.000055789   0.999879943   0.250375272
   0.999879943   0.000055789   0.749624728
   0.000210119   0.500774360   0.249347647
   0.000095049   0.500160207   0.750093939
   0.500160207   0.000095049   0.249906061
   0.500774360   0.000210119   0.750652353
   0.499885837   0.499716738   0.249775768
   0.499716738   0.499885837   0.750224232
Mg28Ni4O32
   1.00000000
   8.497413688   0.000005206   0.000711239
   0.000005206   8.497413688  -0.000711239
   0.000711240  -0.000711240   8.495621169
  Ni  Mg  O
  4  28  32
Direct configuration=     11
   0.001389034   0.001389034   0.000000000
   0.000297838   0.249976397   0.248839951
   0.249976397   0.000297838   0.751160049
   0.748827736   0.748827736   0.500000000