Mg28Ni4O32
   1.00000000
   8.440347699  -0.000000000  -0.000000000
  -0.000000000   8.440347699  -0.000000000
  -0.000000000  -0.000000000   8.440347699
  Ni  Mg  O
  4  28  32
Direct configuration=     1
   0.000000000   0.000000000   0.000000000
   0.000000000   0.000000000   0.500000000
   0.000000000   0.500000000   0.000000000
   0.500000000   0.000000000   0.000000000
   0.000000000   0.500000000   0.500000000
   0.500000000   0.000000000   0.500000000
   0.500000000   0.500000000   0.000000000
   0.500000000   0.500000000   0.500000000
   0.000000000   0.249872430   0.249872430
   0.000000000   0.249872430   0.750127570
   0.000000000   0.750127570   0.249872430
   0.000000000   0.750127570   0.750127570
   0.500000000   0.249905582   0.249905582
   0.500000000   0.249905582   0.750094418
   0.500000000   0.750094418   0.249905582
   0.500000000   0.750094418   0.750094418
   0.249872430   0.000000000   0.249872430
   0.249872430   0.000000000   0.750127570
   0.249905582   0.500000000   0.249905582
   0.249905582   0.500000000   0.750094418
   0.750127570   0.000000000   0.249872430
   0.750127570   0.000000000   0.750127570
   0.750094418   0.500000000   0.249905582
   0.750094418   0.500000000   0.750094418
   0.249872430   0.249872430   0.000000000
   0.249905582   0.249905582   0.500000000
   0.249872430   0.750127570   0.000000000
   0.249905582   0.750094418   0.500000000
   0.750127570   0.249872430   0.000000000
   0.750094418   0.249905582   0.500000000
   0.750127570   0.750127570   0.000000000
   0.750094418   0.750094418   0.500000000
   0.250009931   0.250009931   0.250009931
   0.250009931   0.250009931   0.749990069
   0.250009931   0.749990069   0.250009931
   0.250009931   0.749990069   0.749990069
   0.749990069   0.250009931   0.250009931
   0.749990069   0.250009931   0.749990069
   0.749990069   0.749990069   0.250009931
   0.749990069   0.749990069   0.749990069
   0.249896800   0.000000000   0.000000000
   0.250205135   0.000000000   0.500000000
   0.250205135   0.500000000   0.000000000
   0.249920409   0.500000000   0.500000000
   0.750103200   0.000000000   0.000000000
   0.749794865   0.000000000   0.500000000
   0.749794865   0.500000000   0.000000000
   0.750079591   0.500000000   0.500000000
   0.000000000   0.249896800   0.000000000
   0.000000000   0.250205135   0.500000000
   0.000000000   0.750103200   0.000000000
   0.000000000   0.749794865   0.500000000
   0.500000000   0.250205135   0.000000000
   0.500000000   0.249920409   0.500000000
   0.500000000   0.749794865   0.000000000
   0.500000000   0.750079591   0.500000000
   0.000000000   0.000000000   0.249896800
   0.000000000   0.000000000   0.750103200
   0.000000000   0.500000000   0.250205135
   0.000000000   0.500000000   0.749794865
   0.500000000   0.000000000   0.250205135
   0.500000000   0.000000000   0.749794865
   0.500000000   0.500000000   0.249920409
   0.500000000   0.500000000   0.750079591
Mg28Ni4O32
   1.00000000
   8.442439146  -0.000000000  -0.000000000
  -0.000000000   8.442439146   0.000000000
  -0.000000000   0.000000000   8.442439146
  Ni  Mg  O
  4  28  32
Direct configuration=     2
   0.000000000   0.000000000   0.000000000
   0.000000000   0.000000000   0.500000000
   0.000000000   0.500000000   0.000000000
   0.500000000   0.000000000   0.000000000
   0.000000000   0.500000000   0.500000000
   0.500000000   0.000000000   0.500000000
   0.500000000   0.500000000   0.000000000
   0.500000000   0.500000000   0.500000000
   0.000000000   0.249232846   0.249232846
   0.000000000   0.249232846   0.750767154
   0.000000000   0.750767154   0.249232846
   0.000000000   0.750767154   0.750767154
   0.500000000   0.249428966   0.249428966
   0.500000000   0.249428966   0.750571034
   0.500000000   0.750571034   0.249428966
   0.500000000   0.750571034   0.750571034
   0.249232846   0.000000000   0.249232846
   0.249232846   0.000000000   0.750767154
   0.249428966   0.500000000   0.249428966
   0.249428966   0.500000000   0.750571034
   0.750767154   0.000000000   0.249232846
   0.750767154   0.000000000   0.750767154
   0.750571034   0.500000000   0.249428966
   0.750571034   0.500000000   0.750571034
   0.249232846   0.249232846   0.000000000
   0.249428966   0.249428966   0.500000000
   0.249232846   0.750767154   0.000000000
   0.249428966   0.750571034   0.500000000
   0.750767154   0.249232846   0.000000000
   0.750571034   0.249428966   0.500000000
   0.750767154   0.750767154   0.000000000
   0.750571034   0.750571034   0.500000000
   0.250007498   0.250007498   0.250007498
   0.250007498   0.250007498   0.749992502
   0.250007498   0.749992502   0.250007498
   0.250007498   0.749992502   0.749992502
   0.749992502   0.250007498   0.250007498
   0.749992502   0.250007498   0.749992502
   0.749992502   0.749992502   0.250007498
   0.749992502   0.749992502   0.749992502
   0.249391654   0.000000000   0.000000000
   0.251154591   0.000000000   0.500000000
   0.251154591   0.500000000   0.000000000
   0.249544785   0.500000000   0.500000000
   0.750608346   0.000000000   0.000000000
   0.748845409   0.000000000   0.500000000
   0.748845409   0.500000000   0.000000000
   0.750455215   0.500000000   0.500000000
   0.000000000   0.249391654   0.000000000
   0.000000000   0.251154591   0.500000000
   0.000000000   0.750608346   0.000000000
   0.000000000   0.748845409   0.500000000
   0.500000000   0.251154591   0.000000000
   0.500000000   0.249544785   0.500000000
   0.500000000   0.748845409   0.000000000
   0.500000000   0.750455215   0.500000000
   0.000000000   0.000000000   0.249391654
   0.000000000   0.000000000   0.750608346
   0.000000000   0.500000000   0.251154591
   0.000000000   0.500000000   0.748845409
   0.500000000   0.000000000   0.251154591
   0.500000000   0.000000000   0.748845409
   0.500000000   0.500000000   0.249544785
   0.500000000   0.500000000   0.750455215
Mg28Ni4O32
   1.00000000
   8.443044978  -0.000000000  -0.000000000
  -0.000000000   8.443044978   0.000000000
  -0.000000000   0.000000000   8.443044978
  Ni  Mg  O
  4  28  32
Direct configuration=     3
   0.000000000   0.000000000   0.000000000
   0.000000000   0.000000000   0.500000000
   0.000000000   0.500000000   0.000000000
   0.500000000   0.000000000   0.000000000
   0.000000000   0.500000000   0.500000000
   0.500000000   0.000000000   0.500000000
   0.500000000   0.500000000   0.000000000
   0.500000000   0.500000000   0.500000000
   0.000000000   0.249158938   0.249158938
   0.000000000   0.249158938   0.750841062
   0.000000000   0.750841062   0.249158938
   0.000000000   0.750841062   0.750841062
   0.500000000   0.249369717   0.249369717
   0.500000000   0.249369717   0.750630283
   0.500000000   0.750630283   0.249369717
   0.500000000   0.750630283   0.750630283
   0.249158938   0.000000000   0.249158938
   0.249158938   0.000000000   0.750841062
   0.249369717   0.500000000   0.249369717
   0.249369717   0.500000000   0.750630283
   0.750841062   0.000000000   0.249158938
   0.750841062   0.000000000   0.750841062
   0.750630283   0.500000000   0.249369717
   0.750630283   0.500000000   0.750630283
   0.249158938   0.249158938   0.000000000
   0.249369717   0.249369717   0.500000000
   0.249158938   0.750841062   0.000000000
   0.249369717   0.750630283   0.500000000
   0.750841062   0.249158938   0.000000000
   0.750630283   0.249369717   0.500000000
   0.750841062   0.750841062   0.000000000
   0.750630283   0.750630283   0.500000000
   0.249960540   0.249960540   0.249960540
   0.249960540   0.249960540   0.750039460
   0.249960540   0.750039460   0.249960540
   0.249960540   0.750039460   0.750039460
   0.750039460   0.249960540   0.249960540
   0.750039460   0.249960540   0.750039460
   0.750039460   0.750039460   0.249960540
   0.750039460   0.750039460   0.750039460
   0.249344119   0.000000000   0.000000000
   0.251192888   0.000000000   0.500000000
   0.251192888   0.500000000   0.000000000
   0.249520996   0.500000000   0.500000000
   0.750655881   0.000000000   0.000000000
   0.748807112   0.000000000   0.500000000
   0.748807112   0.500000000   0.000000000
   0.750479004   0.500000000   0.500000000
   0.000000000   0.249344119   0.000000000
   0.000000000   0.251192888   0.500000000
   0.000000000   0.750655881   0.000000000
   0.000000000   0.748807112   0.500000000
   0.500000000   0.251192888   0.000000000
   0.500000000   0.249520996   0.500000000
   0.500000000   0.748807112   0.000000000
   0.500000000   0.750479004   0.500000000
   0.000000000   0.000000000   0.249344119
   0.000000000   0.000000000   0.750655881
   0.000000000   0.500000000   0.251192888
   0.000000000   0.500000000   0.748807112
   0.500000000   0.000000000   0.251192888
   0.500000000   0.000000000   0.748807112
   0.500000000   0.500000000   0.249520996
   0.500000000   0.500000000   0.750479004
Mg28Ni4O32
   1.00000000
   8.451558054  -0.000000000  -0.000000000
  -0.000000000   8.451558054  -0.000000000
  -0.000000000  -0.000000000   8.451558054
  Ni  Mg  O
  4  28  32
Direct configuration=     4
   0.000000000   0.000000000   0.000000000
   0.000000000   0.000000000   0.500000000
   0.000000000   0.500000000   0.000000000
   0.500000000   0.000000000   0.000000000
   1.000000000   0.500000000   0.500000000
   0.500000000   1.000000000   0.500000000
   0.500000000   0.500000000   1.000000000
   0.500000000   0.500000000   0.500000000
   0.000000000   0.248435889   0.248435889
   0.000000000   0.248435889   0.751564111
   0.000000000   0.751564111   0.248435889
   0.000000000   0.751564111   0.751564111
   0.500000000   0.248763842   0.248763842
   0.500000000   0.248763842   0.751236158
   0.500000000   0.751236158   0.248763842
   0.500000000   0.751236158   0.751236158
   0.248435889   0.000000000   0.248435889
   0.248435889   0.000000000   0.751564111
   0.248763842   0.500000000   0.248763842
   0.248763842   0.500000000   0.751236158
   0.751564111   0.000000000   0.248435889
   0.751564111   1.000000000   0.751564111
   0.751236158   0.500000000   0.248763842
   0.751236158   0.500000000   0.751236158
   0.248435889   0.248435889   0.000000000
   0.248763842   0.248763842   0.500000000
   0.248435889   0.751564111   0.000000000
   0.248763842   0.751236158   0.500000000
   0.751564111   0.248435889   0.000000000
   0.751236158   0.248763842   0.500000000
   0.751564111   0.751564111   0.000000000
   0.751236158   0.751236158   0.500000000
   0.249236171   0.249236171   0.249236171
   0.249236171   0.249236171   0.750763829
   0.249236171   0.750763829   0.249236171
   0.249236171   0.750763829   0.750763829
   0.750763829   0.249236171   0.249236171
   0.750763829   0.249236171   0.750763829
   0.750763829   0.750763829   0.249236171
   0.750763829   0.750763829   0.750763829
   0.248937390   0.000000000   1.000000000
   0.251149175   1.000000000   0.500000000
   0.251149175   0.500000000   1.000000000
   0.249384384   0.500000000   0.500000000
   0.751062610   0.000000000   0.000000000
   0.748850825   1.000000000   0.500000000
   0.748850825   0.500000000   1.000000000
   0.750615616   0.500000000   0.500000000
   0.000000000   0.248937390   1.000000000
   1.000000000   0.251149175   0.500000000
   0.000000000   0.751062610   1.000000000
   1.000000000   0.748850825   0.500000000
   0.500000000   0.251149175   1.000000000
   0.500000000   0.249384384   0.500000000
   0.500000000   0.748850825   1.000000000
   0.500000000   0.750615616   0.500000000
   1.000000000   1.000000000   0.248937390
   1.000000000   1.000000000   0.751062610
   1.000000000   0.500000000   0.251149175
   1.000000000   0.500000000   0.748850825
   0.500000000   1.000000000   0.251149175
   0.500000000   1.000000000   0.748850825
   0.500000000   0.500000000   0.249384384
   0.500000000   0.500000000   0.750615616
Mg28Ni4O32
   1.00000000
   8.457593593  -0.000000000  -0.000000000
  -0.000000000   8.457593593  -0.000000000
  -0.000000000  -0.000000000   8.457593593
  Ni  Mg  O
  4  28  32
Direct configuration=     5
   0.000000000   0.000000000   0.000000000
   0.000000000   0.000000000   0.500000000
   0.000000000   0.500000000   0.000000000
   0.500000000   0.000000000   0.000000000
   1.000000000   0.500000000   0.500000000
   0.500000000   1.000000000   0.500000000
   0.500000000   0.500000000   1.000000000
   0.500000000   0.500000000   0.500000000
   0.000000000   0.248174506   0.248174506
   0.000000000   0.248174506   0.751825494
   0.000000000   0.751825494   0.248174506
   1.000000000   0.751825494   0.751825494
   0.500000000   0.248519464   0.248519464
   0.500000000   0.248519464   0.751480536
   0.500000000   0.751480536   0.248519464
   0.500000000   0.751480536   0.751480536
   0.248174506   0.000000000   0.248174506
   0.248174506   0.000000000   0.751825494
   0.248519464   0.500000000   0.248519464
   0.248519464   0.500000000   0.751480536
   0.751825494   0.000000000   0.248174506
   0.751825494   1.000000000   0.751825494
   0.751480536   0.500000000   0.248519464
   0.751480536   0.500000000   0.751480536
   0.248174506   0.248174506   0.000000000
   0.248519464   0.248519464   0.500000000
   0.248174506   0.751825494   1.000000000
   0.248519464   0.751480536   0.500000000
   0.751825494   0.248174506   0.000000000
   0.751480536   0.248519464   0.500000000
   0.751825494   0.751825494   1.000000000
   0.751480536   0.751480536   0.500000000
   0.248748784   0.248748784   0.248748784
   0.248748784   0.248748784   0.751251216
   0.248748784   0.751251216   0.248748784
   0.248748784   0.751251216   0.751251216
   0.751251216   0.248748784   0.248748784
   0.751251216   0.248748784   0.751251216
   0.751251216   0.751251216   0.248748784
   0.751251216   0.751251216   0.751251216
   0.248835711   0.000000000   1.000000000
   0.250759056   1.000000000   0.500000000
   0.250759056   0.500000000   1.000000000
   0.249397304   0.500000000   0.500000000
   0.751164289   1.000000000   0.000000000
   0.749240944   1.000000000   0.500000000
   0.749240944   0.500000000   1.000000000
   0.750602696   0.500000000   0.500000000
   0.000000000   0.248835711   1.000000000
   1.000000000   0.250759056   0.500000000
   0.000000000   0.751164289   1.000000000
   1.000000000   0.749240944   0.500000000
   0.500000000   0.250759056   1.000000000
   0.500000000   0.249397304   0.500000000
   0.500000000   0.749240944   1.000000000
   0.500000000   0.750602696   0.500000000
   1.000000000   1.000000000   0.248835711
   1.000000000   1.000000000   0.751164289
   1.000000000   0.500000000   0.250759056
   1.000000000   0.500000000   0.749240944
   0.500000000   1.000000000   0.250759056
   0.500000000   1.000000000   0.749240944
   0.500000000   0.500000000   0.249397304
   0.500000000   0.500000000   0.750602696
Mg28Ni4O32
   1.00000000
   8.463945728   0.000000000  -0.000000000
   0.000000000   8.463945728  -0.000000000
  -0.000000000  -0.000000000   8.463945728
  Ni  Mg  O
  4  28  32
Direct configuration=     6
   0.000000000   0.000000000   0.000000000
   0.000000000   0.000000000   0.500000000
   0.000000000   0.500000000   0.000000000
   0.500000000   0.000000000   0.000000000
   1.000000000   0.500000000   0.500000000
   0.500000000   1.000000000   0.500000000
   0.500000000   0.500000000   1.000000000
   0.500000000   0.500000000   0.500000000
   1.000000000   0.248132061   0.248132061
   1.000000000   0.248132061   0.751867939
   1.000000000   0.751867939   0.248132061
   1.000000000   0.751867939   0.751867939
   0.500000000   0.248441057   0.248441057
   0.500000000   0.248441057   0.751558943
   0.500000000   0.751558943   0.248441057
   0.500000000   0.751558943   0.751558943
   0.248132061   0.000000000   0.248132061
   0.248132061   1.000000000   0.751867939
   0.248441057   0.500000000   0.248441057
   0.248441057   0.500000000   0.751558943
   0.751867939   1.000000000   0.248132061
   0.751867939   1.000000000   0.751867939
   0.751558943   0.500000000   0.248441057
   0.751558943   0.500000000   0.751558943
   0.248132061   0.248132061   1.000000000
   0.248441057   0.248441057   0.500000000
   0.248132061   0.751867939   1.000000000
   0.248441057   0.751558943   0.500000000
   0.751867939   0.248132061   1.000000000
   0.751558943   0.248441057   0.500000000
   0.751867939   0.751867939   1.000000000
   0.751558943   0.751558943   0.500000000
   0.248369979   0.248369979   0.248369979
   0.248369979   0.248369979   0.751630021
   0.248369979   0.751630021   0.248369979
   0.248369979   0.751630021   0.751630021
   0.751630021   0.248369979   0.248369979
   0.751630021   0.248369979   0.751630021
   0.751630021   0.751630021   0.248369979
   0.751630021   0.751630021   0.751630021
   0.248871608   0.000000000   1.000000000
   0.250166180   1.000000000   0.500000000
   0.250166180   0.500000000   1.000000000
   0.249450433   0.500000000   0.500000000
   0.751128392   0.000000000   0.000000000
   0.749833820   1.000000000   0.500000000
   0.749833820   0.500000000   1.000000000
   0.750549567   0.500000000   0.500000000
   0.000000000   0.248871608   1.000000000
   1.000000000   0.250166180   0.500000000
   0.000000000   0.751128392   1.000000000
   1.000000000   0.749833820   0.500000000
   0.500000000   0.250166180   1.000000000
   0.500000000   0.249450433   0.500000000
   0.500000000   0.749833820   1.000000000
   0.500000000   0.750549567   0.500000000
   1.000000000   1.000000000   0.248871608
   1.000000000   1.000000000   0.751128392
   1.000000000   0.500000000   0.250166180
   1.000000000   0.500000000   0.749833820
   0.500000000   1.000000000   0.250166180
   0.500000000   1.000000000   0.749833820
   0.500000000   0.500000000   0.249450433
   0.500000000   0.500000000   0.750549567
Mg28Ni4O32
   1.00000000
   8.469435665   0.000000000  -0.000000000
   0.000000000   8.469435665  -0.000000000
  -0.000000000  -0.000000000   8.469435665
  Ni  Mg  O
  4  28  32
Direct configuration=     7
   0.000000000   0.000000000   0.000000000
   0.000000000   0.000000000   0.500000000
   1.000000000   0.500000000   0.000000000
   0.500000000   0.000000000   0.000000000
   1.000000000   0.500000000   0.500000000
   0.500000000   1.000000000   0.500000000
   0.500000000   0.500000000   1.000000000
   0.500000000   0.500000000   0.500000000
   1.000000000   0.248257940   0.248257940
   1.000000000   0.248257940   0.751742060
   1.000000000   0.751742060   0.248257940
   1.000000000   0.751742060   0.751742060
   0.500000000   0.248507135   0.248507135
   0.500000000   0.248507135   0.751492865
   0.500000000   0.751492865   0.248507135
   0.500000000   0.751492865   0.751492865
   0.248257940   1.000000000   0.248257940
   0.248257940   1.000000000   0.751742060
   0.248507135   0.500000000   0.248507135
   0.248507135   0.500000000   0.751492865
   0.751742060   1.000000000   0.248257940
   0.751742060   1.000000000   0.751742060
   0.751492865   0.500000000   0.248507135
   0.751492865   0.500000000   0.751492865
   0.248257940   0.248257940   1.000000000
   0.248507135   0.248507135   0.500000000
   0.248257940   0.751742060   1.000000000
   0.248507135   0.751492865   0.500000000
   0.751742060   0.248257940   1.000000000
   0.751492865   0.248507135   0.500000000
   0.751742060   0.751742060   1.000000000
   0.751492865   0.751492865   0.500000000
   0.248264292   0.248264292   0.248264292
   0.248264292   0.248264292   0.751735708
   0.248264292   0.751735708   0.248264292
   0.248264292   0.751735708   0.751735708
   0.751735708   0.248264292   0.248264292
   0.751735708   0.248264292   0.751735708
   0.751735708   0.751735708   0.248264292
   0.751735708   0.751735708   0.751735708
   0.248968193   0.000000000   1.000000000
   0.249706563   1.000000000   0.500000000
   0.249706563   0.500000000   1.000000000
   0.249460112   0.500000000   0.500000000
   0.751031807   0.000000000   0.000000000
   0.750293437   1.000000000   0.500000000
   0.750293437   0.500000000   1.000000000
   0.750539888   0.500000000   0.500000000
   0.000000000   0.248968193   1.000000000
   1.000000000   0.249706563   0.500000000
   0.000000000   0.751031807   1.000000000
   1.000000000   0.750293437   0.500000000
   0.500000000   0.249706563   1.000000000
   0.500000000   0.249460112   0.500000000
   0.500000000   0.750293437   1.000000000
   0.500000000   0.750539888   0.500000000
   0.000000000   0.000000000   0.248968193
   1.000000000   1.000000000   0.751031807
   1.000000000   0.500000000   0.249706563
   1.000000000   0.500000000   0.750293437
   0.500000000   1.000000000   0.249706563
   0.500000000   1.000000000   0.750293437
   0.500000000   0.500000000   0.249460112
   0.500000000   0.500000000   0.750539888
Mg28Ni4O32
   1.00000000
   8.478977474   0.000000000  -0.000000000
   0.000000000   8.478977474  -0.000000000
  -0.000000000  -0.000000000   8.478977474
  Ni  Mg  O
  4  28  32
Direct configuration=     8
   0.000000000   0.000000000   0.000000000
   0.000000000   0.000000000   0.500000000
   1.000000000   0.500000000   1.000000000
   0.500000000   0.000000000   0.000000000
   1.000000000   0.500000000   0.500000000
   0.500000000   1.000000000   0.500000000
   0.500000000   0.500000000   1.000000000
   0.500000000   0.500000000   0.500000000
   1.000000000   0.248565149   0.248565149
   1.000000000   0.248565149   0.751434851
   1.000000000   0.751434851   0.248565149
   1.000000000   0.751434851   0.751434851
   0.500000000   0.248709634   0.248709634
   0.500000000   0.248709634   0.751290366
   0.500000000   0.751290366   0.248709634
   0.500000000   0.751290366   0.751290366
   0.248565149   1.000000000   0.248565149
   0.248565149   1.000000000   0.751434851
   0.248709634   0.500000000   0.248709634
   0.248709634   0.500000000   0.751290366
   0.751434851   1.000000000   0.248565149
   0.751434851   1.000000000   0.751434851
   0.751290366   0.500000000   0.248709634
   0.751290366   0.500000000   0.751290366
   0.248565149   0.248565149   1.000000000
   0.248709634   0.248709634   0.500000000
   0.248565149   0.751434851   1.000000000
   0.248709634   0.751290366   0.500000000
   0.751434851   0.248565149   1.000000000
   0.751290366   0.248709634   0.500000000
   0.751434851   0.751434851   1.000000000
   0.751290366   0.751290366   0.500000000
   0.248399752   0.248399752   0.248399752
   0.248399752   0.248399752   0.751600248
   0.248399752   0.751600248   0.248399752
   0.248399752   0.751600248   0.751600248
   0.751600248   0.248399752   0.248399752
   0.751600248   0.248399752   0.751600248
   0.751600248   0.751600248   0.248399752
   0.751600248   0.751600248   0.751600248
   0.249120675   0.000000000   0.000000000
   0.249226892   1.000000000   0.500000000
   0.249226892   0.500000000   1.000000000
   0.249373901   0.500000000   0.500000000
   0.750879325   0.000000000   0.000000000
   0.750773108   1.000000000   0.500000000
   0.750773108   0.500000000   1.000000000
   0.750626099   0.500000000   0.500000000
   0.000000000   0.249120675   0.000000000
   1.000000000   0.249226892   0.500000000
   0.000000000   0.750879325   0.000000000
   1.000000000   0.750773108   0.500000000
   0.500000000   0.249226892   1.000000000
   0.500000000   0.249373901   0.500000000
   0.500000000   0.750773108   1.000000000
   0.500000000   0.750626099   0.500000000
   0.000000000   0.000000000   0.249120675
   0.000000000   0.000000000   0.750879325
   1.000000000   0.500000000   0.249226892
   1.000000000   0.500000000   0.750773108
   0.500000000   1.000000000   0.249226892
   0.500000000   1.000000000   0.750773108
   0.500000000   0.500000000   0.249373901
   0.500000000   0.500000000   0.750626099
Mg28Ni4O32
   1.00000000
   8.490815098   0.000000000  -0.000000000
   0.000000000   8.490815098  -0.000000000
  -0.000000000  -0.000000000   8.490815098
  Ni  Mg  O
  4  28  32
Direct configuration=     9
   0.000000000   0.000000000   0.000000000
   0.000000000   1.000000000   0.500000000
   1.000000000   0.500000000   1.000000000
   0.500000000   0.000000000   0.000000000
   1.000000000   0.500000000   0.500000000
   0.500000000   1.000000000   0.500000000
   0.500000000   0.500000000   1.000000000
   0.500000000   0.500000000   0.500000000
   1.000000000   0.248941683   0.248941683
   1.000000000   0.248941683   0.751058317
   1.000000000   0.751058317   0.248941683
   1.000000000   0.751058317   0.751058317
   0.500000000   0.248984007   0.248984007
   0.500000000   0.248984007   0.751015993
   0.500000000   0.751015993   0.248984007
   0.500000000   0.751015993   0.751015993
   0.248941683   1.000000000   0.248941683
   0.248941683   1.000000000   0.751058317
   0.248984007   0.500000000   0.248984007
   0.248984007   0.500000000   0.751015993
   0.751058317   1.000000000   0.248941683
   0.751058317   1.000000000   0.751058317
   0.751015993   0.500000000   0.248984007
   0.751015993   0.500000000   0.751015993
   0.248941683   0.248941683   1.000000000
   0.248984007   0.248984007   0.500000000
   0.248941683   0.751058317   1.000000000
   0.248984007   0.751015993   0.500000000
   0.751058317   0.248941683   1.000000000
   0.751015993   0.248984007   0.500000000
   0.751058317   0.751058317   1.000000000
   0.751015993   0.751015993   0.500000000
   0.248886256   0.248886256   0.248886256
   0.248886256   0.248886256   0.751113744
   0.248886256   0.751113744   0.248886256
   0.248886256   0.751113744   0.751113744
   0.751113744   0.248886256   0.248886256
   0.751113744   0.248886256   0.751113744
   0.751113744   0.751113744   0.248886256
   0.751113744   0.751113744   0.751113744
   0.249229370   0.000000000   0.000000000
   0.249123720   1.000000000   0.500000000
   0.249123720   0.500000000   1.000000000
   0.249156899   0.500000000   0.500000000
   0.750770630   0.000000000   0.000000000
   0.750876280   1.000000000   0.500000000
   0.750876280   0.500000000   1.000000000
   0.750843101   0.500000000   0.500000000
   0.000000000   0.249229370   0.000000000
   1.000000000   0.249123720   0.500000000
   0.000000000   0.750770630   0.000000000
   1.000000000   0.750876280   0.500000000
   0.500000000   0.249123720   0.000000000
   0.500000000   0.249156899   0.500000000
   0.500000000   0.750876280   1.000000000
   0.500000000   0.750843101   0.500000000
   0.000000000   0.000000000   0.249229370
   0.000000000   0.000000000   0.750770630
   1.000000000   0.500000000   0.249123720
   1.000000000   0.500000000   0.750876280
   0.500000000   1.000000000   0.249123720
   0.500000000   1.000000000   0.750876280
   0.500000000   0.500000000   0.249156899
   0.500000000   0.500000000   0.750843101
Mg28Ni4O32
   1.00000000
   8.499444131   0.000000000  -0.000000000
   0.000000000   8.499444131  -0.000000000
  -0.000000000  -0.000000000   8.499444131
  Ni  Mg  O
  4  28  32
Direct configuration=     10
   0.000000000   0.000000000   0.000000000
   1.000000000   1.000000000   0.500000000
   1.000000000   0.500000000   1.000000000
   0.500000000   1.000000000   0.000000000
   1.000000000   0.500000000   0.500000000
   0.500000000   1.000000000   0.500000000
   0.500000000   0.500000000   1.000000000
   0.500000000   0.500000000   0.500000000
   1.000000000   0.249164895   0.249164895
   1.000000000   0.249164895   0.750835105
   1.000000000   0.750835105   0.249164895
   1.000000000   0.750835105   0.750835105
   0.500000000   0.249175679   0.249175679
   0.500000000   0.249175679   0.750824321
   0.500000000   0.750824321   0.249175679
   0.500000000   0.750824321   0.750824321
   0.249164895   1.000000000   0.249164895
   0.249164895   1.000000000   0.750835105
   0.249175679   0.500000000   0.249175679
   0.249175679   0.500000000   0.750824321
   0.750835105   1.000000000   0.249164895
   0.750835105   1.000000000   0.750835105
   0.750824321   0.500000000   0.249175679
   0.750824321   0.500000000   0.750824321
   0.249164895   0.249164895   1.000000000
   0.249175679   0.249175679   0.500000000
   0.249164895   0.750835105   1.000000000
   0.249175679   0.750824321   0.500000000
   0.750835105   0.249164895   1.000000000
   0.750824321   0.249175679   0.500000000
   0.750835105   0.750835105   1.000000000
   0.750824321   0.750824321   0.500000000
   0.249503260   0.249503260   0.249503260
   0.249503260   0.249503260   0.750496740
   0.249503260   0.750496740   0.249503260
   0.249503260   0.750496740   0.750496740
   0.750496740   0.249503260   0.249503260
   0.750496740   0.249503260   0.750496740
   0.750496740   0.750496740   0.249503260
   0.750496740   0.750496740   0.750496740
   0.249217034   0.000000000   0.000000000
   0.249571989   1.000000000   0.500000000
   0.249571989   0.500000000   1.000000000
   0.248941603   0.500000000   0.500000000
   0.750782966   0.000000000   0.000000000
   0.750428011   1.000000000   0.500000000
   0.750428011   0.500000000   1.000000000
   0.751058397   0.500000000   0.500000000
   0.000000000   0.249217034   0.000000000
   0.000000000   0.249571989   0.500000000
   0.000000000   0.750782966   0.000000000
   1.000000000   0.750428011   0.500000000
   0.500000000   0.249571989   0.000000000
   0.500000000   0.248941603   0.500000000
   0.500000000   0.750428011   1.000000000
   0.500000000   0.751058397   0.500000000
   0.000000000   0.000000000   0.249217034
   0.000000000   0.000000000   0.750782966
   1.000000000   0.500000000   0.249571989
   1.000000000   0.500000000   0.750428011
   0.500000000   1.000000000   0.249571989
   0.500000000   1.000000000   0.750428011
   0.500000000   0.500000000   0.248941603
   0.500000000   0.500000000   0.751058397
Mg28Ni4O32
   1.00000000
   8.501000548   0.000000000  -0.000000000
   0.000000000   8.501000548  -0.000000000
  -0.000000000  -0.000000000   8.501000548
  Ni  Mg  O
  4  28  32
Direct configuration=     11
   0.000000000   0.000000000   0.000000000
   1.000000000   1.000000000   0.500000000
   0.000000000   0.500000000   1.000000000
   0.500000000   1.000000000   1.000000000