Mg28Ni4O32
   1.00000000
   8.440335649  -0.000000000  -0.000000000
  -0.000000000   8.440335649  -0.000000000
  -0.000000000  -0.000000000   8.440335649
  Ni  Mg  O
  4  28  32
Direct configuration=     1
   0.000000000   0.000000000   0.000000000
   0.000000000   0.500000000   0.500000000
   0.500000000   0.000000000   0.500000000
   0.500000000   0.500000000   0.000000000
   0.000000000   0.000000000   0.500000000
   0.000000000   0.500000000   0.000000000
   0.500000000   0.000000000   0.000000000
   0.500000000   0.500000000   0.500000000
   0.000000000   0.250000000   0.250000000
   0.000000000   0.250000000   0.750000000
   0.000000000   0.750000000   0.250000000
   0.000000000   0.750000000   0.750000000
   0.500000000   0.250000000   0.250000000
   0.500000000   0.250000000   0.750000000
   0.500000000   0.750000000   0.250000000
   0.500000000   0.750000000   0.750000000
   0.250000000   0.000000000   0.250000000
   0.250000000   0.000000000   0.750000000
   0.250000000   0.500000000   0.250000000
   0.250000000   0.500000000   0.750000000
   0.750000000   0.000000000   0.250000000
   0.750000000   0.000000000   0.750000000
   0.750000000   0.500000000   0.250000000
   0.750000000   0.500000000   0.750000000
   0.250000000   0.250000000   0.000000000
   0.250000000   0.250000000   0.500000000
   0.250000000   0.750000000   0.000000000
   0.250000000   0.750000000   0.500000000
   0.750000000   0.250000000   0.000000000
   0.750000000   0.250000000   0.500000000
   0.750000000   0.750000000   0.000000000
   0.750000000   0.750000000   0.500000000
   0.250000000   0.250000000   0.250000000
   0.250000000   0.250000000   0.750000000
   0.250000000   0.750000000   0.250000000
   0.250000000   0.750000000   0.750000000
   0.750000000   0.250000000   0.250000000
   0.750000000   0.250000000   0.750000000
   0.750000000   0.750000000   0.250000000
   0.750000000   0.750000000   0.750000000
   0.250269612   0.000000000   0.000000000
   0.249730388   0.000000000   0.500000000
   0.249730388   0.500000000   0.000000000
   0.250269612   0.500000000   0.500000000
   0.749730388   0.000000000   0.000000000
   0.750269612   0.000000000   0.500000000
   0.750269612   0.500000000   0.000000000
   0.749730388   0.500000000   0.500000000
   0.000000000   0.250269612   0.000000000
   0.000000000   0.249730388   0.500000000
   0.000000000   0.749730388   0.000000000
   0.000000000   0.750269612   0.500000000
   0.500000000   0.249730388   0.000000000
   0.500000000   0.250269612   0.500000000
   0.500000000   0.750269612   0.000000000
   0.500000000   0.749730388   0.500000000
   0.000000000   0.000000000   0.250269612
   0.000000000   0.000000000   0.749730388
   0.000000000   0.500000000   0.249730388
   0.000000000   0.500000000   0.750269612
   0.500000000   0.000000000   0.249730388
   0.500000000   0.000000000   0.750269612
   0.500000000   0.500000000   0.250269612
   0.500000000   0.500000000   0.749730388
Mg28Ni4O32
   1.00000000
   8.441985910  -0.000000000  -0.000000000
  -0.000000000   8.441985910  -0.000000000
  -0.000000000  -0.000000000   8.441985910
  Ni  Mg  O
  4  28  32
Direct configuration=     2
   0.000000000   0.000000000   0.000000000
   0.000000000   0.500000000   0.500000000
   0.500000000   0.000000000   0.500000000
   0.500000000   0.500000000   0.000000000
   0.000000000   0.000000000   0.500000000
   0.000000000   0.500000000   0.000000000
   0.500000000   0.000000000   0.000000000
   0.500000000   0.500000000   0.500000000
   0.000000000   0.250000000   0.250000000
   0.000000000   0.250000000   0.750000000
   0.000000000   0.750000000   0.250000000
   0.000000000   0.750000000   0.750000000
   0.500000000   0.250000000   0.250000000
   0.500000000   0.250000000   0.750000000
   0.500000000   0.750000000   0.250000000
   0.500000000   0.750000000   0.750000000
   0.250000000   0.000000000   0.250000000
   0.250000000   0.000000000   0.750000000
   0.250000000   0.500000000   0.250000000
   0.250000000   0.500000000   0.750000000
   0.750000000   0.000000000   0.250000000
   0.750000000   0.000000000   0.750000000
   0.750000000   0.500000000   0.250000000
   0.750000000   0.500000000   0.750000000
   0.250000000   0.250000000   0.000000000
   0.250000000   0.250000000   0.500000000
   0.250000000   0.750000000   0.000000000
   0.250000000   0.750000000   0.500000000
   0.750000000   0.250000000   0.000000000
   0.750000000   0.250000000   0.500000000
   0.750000000   0.750000000   0.000000000
   0.750000000   0.750000000   0.500000000
   0.250000000   0.250000000   0.250000000
   0.250000000   0.250000000   0.750000000
   0.250000000   0.750000000   0.250000000
   0.250000000   0.750000000   0.750000000
   0.750000000   0.250000000   0.250000000
   0.750000000   0.250000000   0.750000000
   0.750000000   0.750000000   0.250000000
   0.750000000   0.750000000   0.750000000
   0.251299466   0.000000000   0.000000000
   0.248700534   0.000000000   0.500000000
   0.248700534   0.500000000   0.000000000
   0.251299466   0.500000000   0.500000000
   0.748700534   0.000000000   0.000000000
   0.751299466   0.000000000   0.500000000
   0.751299466   0.500000000   0.000000000
   0.748700534   0.500000000   0.500000000
   0.000000000   0.251299466   0.000000000
   0.000000000   0.248700534   0.500000000
   0.000000000   0.748700534   0.000000000
   0.000000000   0.751299466   0.500000000
   0.500000000   0.248700534   0.000000000
   0.500000000   0.251299466   0.500000000
   0.500000000   0.751299466   0.000000000
   0.500000000   0.748700534   0.500000000
   0.000000000   0.000000000   0.251299466
   0.000000000   0.000000000   0.748700534
   0.000000000   0.500000000   0.248700534
   0.000000000   0.500000000   0.751299466
   0.500000000   0.000000000   0.248700534
   0.500000000   0.000000000   0.751299466
   0.500000000   0.500000000   0.251299466
   0.500000000   0.500000000   0.748700534
Mg28Ni4O32
   1.00000000
   8.442441112  -0.000000000  -0.000000000
  -0.000000000   8.442441112  -0.000000000
  -0.000000000  -0.000000000   8.442441112
  Ni  Mg  O
  4  28  32
Direct configuration=     3
   0.000000000   0.000000000   0.000000000
   0.000000000   0.500000000   0.500000000
   0.500000000   0.000000000   0.500000000
   0.500000000   0.500000000   0.000000000
   0.000000000   0.000000000   0.500000000
   0.000000000   0.500000000   0.000000000
   0.500000000   0.000000000   0.000000000
   0.500000000   0.500000000   0.500000000
   0.000000000   0.250000000   0.250000000
   0.000000000   0.250000000   0.750000000
   0.000000000   0.750000000   0.250000000
   0.000000000   0.750000000   0.750000000
   0.500000000   0.250000000   0.250000000
   0.500000000   0.250000000   0.750000000
   0.500000000   0.750000000   0.250000000
   0.500000000   0.750000000   0.750000000
   0.250000000   0.000000000   0.250000000
   0.250000000   0.000000000   0.750000000
   0.250000000   0.500000000   0.250000000
   0.250000000   0.500000000   0.750000000
   0.750000000   0.000000000   0.250000000
   0.750000000   0.000000000   0.750000000
   0.750000000   0.500000000   0.250000000
   0.750000000   0.500000000   0.750000000
   0.250000000   0.250000000   0.000000000
   0.250000000   0.250000000   0.500000000
   0.250000000   0.750000000   0.000000000
   0.250000000   0.750000000   0.500000000
   0.750000000   0.250000000   0.000000000
   0.750000000   0.250000000   0.500000000
   0.750000000   0.750000000   0.000000000
   0.750000000   0.750000000   0.500000000
   0.250000000   0.250000000   0.250000000
   0.250000000   0.250000000   0.750000000
   0.250000000   0.750000000   0.250000000
   0.250000000   0.750000000   0.750000000
   0.750000000   0.250000000   0.250000000
   0.750000000   0.250000000   0.750000000
   0.750000000   0.750000000   0.250000000
   0.750000000   0.750000000   0.750000000
   0.251343513   0.000000000   0.000000000
   0.248656487   0.000000000   0.500000000
   0.248656487   0.500000000   0.000000000
   0.251343513   0.500000000   0.500000000
   0.748656487   0.000000000   0.000000000
   0.751343513   0.000000000   0.500000000
   0.751343513   0.500000000   0.000000000
   0.748656487   0.500000000   0.500000000
   0.000000000   0.251343513   0.000000000
   0.000000000   0.248656487   0.500000000
   0.000000000   0.748656487   0.000000000
   0.000000000   0.751343513   0.500000000
   0.500000000   0.248656487   0.000000000
   0.500000000   0.251343513   0.500000000
   0.500000000   0.751343513   0.000000000
   0.500000000   0.748656487   0.500000000
   0.000000000   0.000000000   0.251343513
   0.000000000   0.000000000   0.748656487
   0.000000000   0.500000000   0.248656487
   0.000000000   0.500000000   0.751343513
   0.500000000   0.000000000   0.248656487
   0.500000000   0.000000000   0.751343513
   0.500000000   0.500000000   0.251343513
   0.500000000   0.500000000   0.748656487
Mg28Ni4O32
   1.00000000
   8.458346657   0.000000000  -0.000000000
   0.000000000   8.458346657  -0.000000000
  -0.000000000  -0.000000000   8.458346657
  Ni  Mg  O
  4  28  32
Direct configuration=     4
   1.000000000   0.000000000   0.000000000
   0.000000000   0.500000000   0.500000000
   0.500000000   0.000000000   0.500000000
   0.500000000   0.500000000   0.000000000
   0.000000000   0.000000000   0.500000000
   0.000000000   0.500000000   0.000000000
   0.500000000   0.000000000   0.000000000
   0.500000000   0.500000000   0.500000000
   0.000000000   0.250000000   0.250000000
   0.000000000   0.250000000   0.750000000
   0.000000000   0.750000000   0.250000000
   0.000000000   0.750000000   0.750000000
   0.500000000   0.250000000   0.250000000
   0.500000000   0.250000000   0.750000000
   0.500000000   0.750000000   0.250000000
   0.500000000   0.750000000   0.750000000
   0.250000000   0.000000000   0.250000000
   0.250000000   0.000000000   0.750000000
   0.250000000   0.500000000   0.250000000
   0.250000000   0.500000000   0.750000000
   0.750000000   0.000000000   0.250000000
   0.750000000   0.000000000   0.750000000
   0.750000000   0.500000000   0.250000000
   0.750000000   0.500000000   0.750000000
   0.250000000   0.250000000   0.000000000
   0.250000000   0.250000000   0.500000000
   0.250000000   0.750000000   0.000000000
   0.250000000   0.750000000   0.500000000
   0.750000000   0.250000000   0.000000000
   0.750000000   0.250000000   0.500000000
   0.750000000   0.750000000   0.000000000
   0.750000000   0.750000000   0.500000000
   0.250000000   0.250000000   0.250000000
   0.250000000   0.250000000   0.750000000
   0.250000000   0.750000000   0.250000000
   0.250000000   0.750000000   0.750000000
   0.750000000   0.250000000   0.250000000
   0.750000000   0.250000000   0.750000000
   0.750000000   0.750000000   0.250000000
   0.750000000   0.750000000   0.750000000
   0.252056603   0.000000000   0.000000000
   0.247943397   0.000000000   0.500000000
   0.247943397   0.500000000   0.000000000
   0.252056603   0.500000000   0.500000000
   0.747943397   0.000000000   0.000000000
   0.752056603   0.000000000   0.500000000
   0.752056603   0.500000000   0.000000000
   0.747943397   0.500000000   0.500000000
   0.000000000   0.252056603   0.000000000
   0.000000000   0.247943397   0.500000000
   0.000000000   0.747943397   0.000000000
   0.000000000   0.752056603   0.500000000
   0.500000000   0.247943397   0.000000000
   0.500000000   0.252056603   0.500000000
   0.500000000   0.752056603   0.000000000
   0.500000000   0.747943397   0.500000000
   0.000000000   0.000000000   0.252056603
   0.000000000   0.000000000   0.747943397
   0.000000000   0.500000000   0.247943397
   0.000000000   0.500000000   0.752056603
   0.500000000   0.000000000   0.247943397
   0.500000000   0.000000000   0.752056603
   0.500000000   0.500000000   0.252056603
   0.500000000   0.500000000   0.747943397
Mg28Ni4O32
   1.00000000
   8.476126368   0.000000000  -0.000000000
   0.000000000   8.476126368   0.000000000
  -0.000000000   0.000000000   8.476126368
  Ni  Mg  O
  4  28  32
Direct configuration=     5
   1.000000000   1.000000000   0.000000000
   0.000000000   0.500000000   0.500000000
   0.500000000   0.000000000   0.500000000
   0.500000000   0.500000000   0.000000000
   0.000000000   0.000000000   0.500000000
   0.000000000   0.500000000   0.000000000
   0.500000000   0.000000000   0.000000000
   0.500000000   0.500000000   0.500000000
   0.000000000   0.250000000   0.250000000
   0.000000000   0.250000000   0.750000000
   0.000000000   0.750000000   0.250000000
   1.000000000   0.750000000   0.750000000
   0.500000000   0.250000000   0.250000000
   0.500000000   0.250000000   0.750000000
   0.500000000   0.750000000   0.250000000
   0.500000000   0.750000000   0.750000000
   0.250000000   0.000000000   0.250000000
   0.250000000   0.000000000   0.750000000
   0.250000000   0.500000000   0.250000000
   0.250000000   0.500000000   0.750000000
   0.750000000   0.000000000   0.250000000
   0.750000000   1.000000000   0.750000000
   0.750000000   0.500000000   0.250000000
   0.750000000   0.500000000   0.750000000
   0.250000000   0.250000000   0.000000000
   0.250000000   0.250000000   0.500000000
   0.250000000   0.750000000   0.000000000
   0.250000000   0.750000000   0.500000000
   0.750000000   0.250000000   0.000000000
   0.750000000   0.250000000   0.500000000
   0.750000000   0.750000000   1.000000000
   0.750000000   0.750000000   0.500000000
   0.250000000   0.250000000   0.250000000
   0.250000000   0.250000000   0.750000000
   0.250000000   0.750000000   0.250000000
   0.250000000   0.750000000   0.750000000
   0.750000000   0.250000000   0.250000000
   0.750000000   0.250000000   0.750000000
   0.750000000   0.750000000   0.250000000
   0.750000000   0.750000000   0.750000000
   0.252172575   0.000000000   0.000000000
   0.247827425   0.000000000   0.500000000
   0.247827425   0.500000000   0.000000000
   0.252172575   0.500000000   0.500000000
   0.747827425   0.000000000   0.000000000
   0.752172575   0.000000000   0.500000000
   0.752172575   0.500000000   0.000000000
   0.747827425   0.500000000   0.500000000
   0.000000000   0.252172575   0.000000000
   0.000000000   0.247827425   0.500000000
   0.000000000   0.747827425   0.000000000
   0.000000000   0.752172575   0.500000000
   0.500000000   0.247827425   0.000000000
   0.500000000   0.252172575   0.500000000
   0.500000000   0.752172575   0.000000000
   0.500000000   0.747827425   0.500000000
   0.000000000   0.000000000   0.252172575
   0.000000000   0.000000000   0.747827425
   0.000000000   0.500000000   0.247827425
   0.000000000   0.500000000   0.752172575
   0.500000000   0.000000000   0.247827425
   0.500000000   0.000000000   0.752172575
   0.500000000   0.500000000   0.252172575
   0.500000000   0.500000000   0.747827425
Mg28Ni4O32
   1.00000000
   8.495165099   0.000000000  -0.000000000
   0.000000000   8.495165099   0.000000000
  -0.000000000   0.000000000   8.495165099
  Ni  Mg  O
  4  28  32
Direct configuration=     6
   1.000000000   1.000000000   0.000000000
   0.000000000   0.500000000   0.500000000
   0.500000000   0.000000000   0.500000000
   0.500000000   0.500000000   0.000000000
   0.000000000   0.000000000   0.500000000
   0.000000000   0.500000000   0.000000000
   0.500000000   0.000000000   0.000000000
   0.500000000   0.500000000   0.500000000
   0.000000000   0.250000000   0.250000000
   0.000000000   0.250000000   0.750000000
   0.000000000   0.750000000   0.250000000
   1.000000000   0.750000000   0.750000000
   0.500000000   0.250000000   0.250000000
   0.500000000   0.250000000   0.750000000
   0.500000000   0.750000000   0.250000000
   0.500000000   0.750000000   0.750000000
   0.250000000   0.000000000   0.250000000
   0.250000000   0.000000000   0.750000000
   0.250000000   0.500000000   0.250000000
   0.250000000   0.500000000   0.750000000
   0.750000000   0.000000000   0.250000000
   0.750000000   1.000000000   0.750000000
   0.750000000   0.500000000   0.250000000
   0.750000000   0.500000000   0.750000000
   0.250000000   0.250000000   0.000000000
   0.250000000   0.250000000   0.500000000
   0.250000000   0.750000000   0.000000000
   0.250000000   0.750000000   0.500000000
   0.750000000   0.250000000   0.000000000
   0.750000000   0.250000000   0.500000000
   0.750000000   0.750000000   1.000000000
   0.750000000   0.750000000   0.500000000
   0.250000000   0.250000000   0.250000000
   0.250000000   0.250000000   0.750000000
   0.250000000   0.750000000   0.250000000
   0.250000000   0.750000000   0.750000000
   0.750000000   0.250000000   0.250000000
   0.750000000   0.250000000   0.750000000
   0.750000000   0.750000000   0.250000000
   0.750000000   0.750000000   0.750000000
   0.251694462   0.000000000   0.000000000
   0.248305538   0.000000000   0.500000000
   0.248305538   0.500000000   0.000000000
   0.251694462   0.500000000   0.500000000
   0.748305538   0.000000000   0.000000000
   0.751694462   0.000000000   0.500000000
   0.751694462   0.500000000   0.000000000
   0.748305538   0.500000000   0.500000000
   0.000000000   0.251694462   0.000000000
   0.000000000   0.248305538   0.500000000
   0.000000000   0.748305538   0.000000000
   0.000000000   0.751694462   0.500000000
   0.500000000   0.248305538   0.000000000
   0.500000000   0.251694462   0.500000000
   0.500000000   0.751694462   0.000000000
   0.500000000   0.748305538   0.500000000
   0.000000000   0.000000000   0.251694462
   0.000000000   0.000000000   0.748305538
   0.000000000   0.500000000   0.248305538
   0.000000000   0.500000000   0.751694462
   0.500000000   0.000000000   0.248305538
   0.500000000   0.000000000   0.751694462
   0.500000000   0.500000000   0.251694462
   0.500000000   0.500000000   0.748305538
Mg28Ni4O32
   1.00000000
   8.499371355   0.000000000  -0.000000000
   0.000000000   8.499371355   0.000000000
  -0.000000000   0.000000000   8.499371355
  Ni  Mg  O
  4  28  32
Direct configuration=     7
   1.000000000   1.000000000   0.000000000
   0.000000000   0.500000000   0.500000000
   0.500000000   0.000000000   0.500000000
   0.500000000   0.500000000   0.000000000
   0.000000000   0.000000000   0.500000000
   0.000000000   0.500000000   0.000000000
   0.500000000   0.000000000   0.000000000
   0.500000000   0.500000000   0.500000000
   0.000000000   0.250000000   0.250000000
   0.000000000   0.250000000   0.750000000
   0.000000000   0.750000000   0.250000000
   1.000000000   0.750000000   0.750000000
   0.500000000   0.250000000   0.250000000
   0.500000000   0.250000000   0.750000000
   0.500000000   0.750000000   0.250000000
   0.500000000   0.750000000   0.750000000
   0.250000000   0.000000000   0.250000000
   0.250000000   0.000000000   0.750000000
   0.250000000   0.500000000   0.250000000
   0.250000000   0.500000000   0.750000000
   0.750000000   0.000000000   0.250000000
   0.750000000   1.000000000   0.750000000
   0.750000000   0.500000000   0.250000000
   0.750000000   0.500000000   0.750000000
   0.250000000   0.250000000   0.000000000
   0.250000000   0.250000000   0.500000000
   0.250000000   0.750000000   0.000000000
   0.250000000   0.750000000   0.500000000
   0.750000000   0.250000000   0.000000000
   0.750000000   0.250000000   0.500000000
   0.750000000   0.750000000   1.000000000
   0.750000000   0.750000000   0.500000000
   0.250000000   0.250000000   0.250000000
   0.250000000   0.250000000   0.750000000
   0.250000000   0.750000000   0.250000000
   0.250000000   0.750000000   0.750000000
   0.750000000   0.250000000   0.250000000
   0.750000000   0.250000000   0.750000000
   0.750000000   0.750000000   0.250000000
   0.750000000   0.750000000   0.750000000
   0.251207006   0.000000000   0.000000000
   0.248792994   0.000000000   0.500000000
   0.248792994   0.500000000   0.000000000
   0.251207006   0.500000000   0.500000000
   0.748792994   0.000000000   0.000000000
   0.751207006   0.000000000   0.500000000
   0.751207006   0.500000000   0.000000000
   0.748792994   0.500000000   0.500000000
   0.000000000   0.251207006   0.000000000
   0.000000000   0.248792994   0.500000000
   0.000000000   0.748792994   0.000000000
   0.000000000   0.751207006   0.500000000
   0.500000000   0.248792994   0.000000000
   0.500000000   0.251207006   0.500000000
   0.500000000   0.751207006   0.000000000
   0.500000000   0.748792994   0.500000000
   0.000000000   0.000000000   0.251207006
   0.000000000   0.000000000   0.748792994
   0.000000000   0.500000000   0.248792994
   0.000000000   0.500000000   0.751207006
   0.500000000   0.000000000   0.248792994
   0.500000000   0.000000000   0.751207006
   0.500000000   0.500000000   0.251207006
   0.500000000   0.500000000   0.748792994
Mg28Ni4O32
   1.00000000
   8.498340463   0.000000000  -0.000000000
   0.000000000   8.498340463   0.000000000
  -0.000000000   0.000000000   8.498340463
  Ni  Mg  O
  4  28  32
Direct configuration=     8
   1.000000000   1.000000000   0.000000000
   0.000000000   0.500000000   0.500000000
   0.500000000   0.000000000   0.500000000
   0.500000000   0.500000000   0.000000000
   0.000000000   0.000000000   0.500000000
   0.000000000   0.500000000   0.000000000
   0.500000000   0.000000000   0.000000000
   0.500000000   0.500000000   0.500000000
   0.000000000   0.250000000   0.250000000
   0.000000000   0.250000000   0.750000000
   0.000000000   0.750000000   0.250000000
   1.000000000   0.750000000   0.750000000
   0.500000000   0.250000000   0.250000000
   0.500000000   0.250000000   0.750000000
   0.500000000   0.750000000   0.250000000
   0.500000000   0.750000000   0.750000000
   0.250000000   0.000000000   0.250000000
   0.250000000   0.000000000   0.750000000
   0.250000000   0.500000000   0.250000000
   0.250000000   0.500000000   0.750000000
   0.750000000   0.000000000   0.250000000
   0.750000000   1.000000000   0.750000000
   0.750000000   0.500000000   0.250000000
   0.750000000   0.500000000   0.750000000
   0.250000000   0.250000000   0.000000000
   0.250000000   0.250000000   0.500000000
   0.250000000   0.750000000   0.000000000
   0.250000000   0.750000000   0.500000000
   0.750000000   0.250000000   0.000000000
   0.750000000   0.250000000   0.500000000
   0.750000000   0.750000000   1.000000000
   0.750000000   0.750000000   0.500000000
   0.250000000   0.250000000   0.250000000
   0.250000000   0.250000000   0.750000000
   0.250000000   0.750000000   0.250000000
   0.250000000   0.750000000   0.750000000
   0.750000000   0.250000000   0.250000000
   0.750000000   0.250000000   0.750000000
   0.750000000   0.750000000   0.250000000
   0.750000000   0.750000000   0.750000000
   0.251038314   0.000000000   0.000000000
   0.248961686   0.000000000   0.500000000
   0.248961686   0.500000000   0.000000000
   0.251038314   0.500000000   0.500000000
   0.748961686   0.000000000   0.000000000
   0.751038314   0.000000000   0.500000000
   0.751038314   0.500000000   0.000000000
   0.748961686   0.500000000   0.500000000
   0.000000000   0.251038314   0.000000000
   0.000000000   0.248961686   0.500000000
   0.000000000   0.748961686   0.000000000
   0.000000000   0.751038314   0.500000000
   0.500000000   0.248961686   0.000000000
   0.500000000   0.251038314   0.500000000
   0.500000000   0.751038314   0.000000000
   0.500000000   0.748961686   0.500000000
   0.000000000   0.000000000   0.251038314
   0.000000000   0.000000000   0.748961686
   0.000000000   0.500000000   0.248961686
   0.000000000   0.500000000   0.751038314
   0.500000000   0.000000000   0.248961686
   0.500000000   0.000000000   0.751038314
   0.500000000   0.500000000   0.251038314
   0.500000000   0.500000000   0.748961686
