Mg28Ni4O32
   1.00000000
   8.440354708  -0.000000000  -0.000004578
  -0.000000000   8.440335262   0.000000000
  -0.000004578   0.000000000   8.440343700
  Ni  Mg  O
  4  28  32
Direct configuration=     1
   0.999999913   0.000000000   0.000099721
   0.999999913   0.500000000   0.500099721
   0.250000087   0.000000000   0.249900279
   0.250000087   0.500000000   0.749900279
   0.000086265   0.000000000   0.499902533
   0.000086265   0.500000000   0.999902533
   0.499926499   0.000000000   0.000063187
   0.499950141   0.000000000   0.499920030
   0.499950141   0.500000000   0.999920030
   0.499926499   0.500000000   0.500063187
   0.000054937   0.249900331   0.249988036
   0.000054937   0.250099669   0.749988036
   0.000054937   0.750099669   0.249988036
   0.000054937   0.749900331   0.749988036
   0.499940970   0.249946925   0.250007050
   0.499940970   0.250053075   0.750007050
   0.499940970   0.750053075   0.250007050
   0.499940970   0.749946925   0.750007050
   0.249913735   0.000000000   0.750097467
   0.249913735   0.500000000   0.250097467
   0.750073501   0.000000000   0.249936813
   0.750049859   0.000000000   0.750079970
   0.750049859   0.500000000   0.250079970
   0.750073501   0.500000000   0.749936813
   0.249945063   0.249900331   0.000011964
   0.249945063   0.250099669   0.500011964
   0.249945063   0.750099669   0.000011964
   0.249945063   0.749900331   0.500011964
   0.750059030   0.249946925   0.999992950
   0.750059030   0.250053075   0.499992950
   0.750059030   0.750053075   0.999992950
   0.750059030   0.749946925   0.499992950
   0.249957924   0.250217431   0.249953988
   0.249957924   0.249782569   0.749953988
   0.249957924   0.749782569   0.249953988
   0.249957924   0.750217431   0.749953988
   0.750015625   0.249945649   0.249995693
   0.750015625   0.250054351   0.749995693
   0.750015625   0.750054351   0.249995693
   0.750015625   0.749945649   0.749995693
   0.250078237   0.000000000   0.999810837
   0.249863112   0.000000000   0.500251270
   0.249863112   0.500000000   0.000251270
   0.250078237   0.500000000   0.499810837
   0.749892843   0.000000000   0.000058873
   0.750116424   0.000000000   0.499949548
   0.750116424   0.500000000   0.999949548
   0.749892843   0.500000000   0.500058873
   0.000042076   0.250217431   0.000046012
   0.000042076   0.249782569   0.500046012
   0.000042076   0.749782569   0.000046012
   0.000042076   0.750217431   0.500046012
   0.499984375   0.249945649   0.000004307
   0.499984375   0.250054351   0.500004307
   0.499984375   0.750054351   0.000004307
   0.499984375   0.749945649   0.500004307
   0.999921763   0.000000000   0.250189163
   0.000136888   0.000000000   0.749748730
   0.000136888   0.500000000   0.249748730
   0.999921763   0.500000000   0.750189163
   0.500107157   0.000000000   0.249941127
   0.499883576   0.000000000   0.750050452
   0.499883576   0.500000000   0.250050452
   0.500107157   0.500000000   0.749941127
Mg28Ni4O32
   1.00000000
   8.442301924   0.000000000  -0.000030724
   0.000000000   8.442175132   0.000000000
  -0.000030724   0.000000000   8.442231295
  Ni  Mg  O
  4  28  32
Direct configuration=     2
   0.999996945   0.000000000   0.000525712
   0.999996945   0.500000000   0.500525712
   0.250003055   0.000000000   0.249474288
   0.250003055   0.500000000   0.749474288
   0.000525937   0.000000000   0.499493394
   0.000525937   0.500000000   0.999493394
   0.499576028   0.000000000   0.000323819
   0.499691300   0.000000000   0.499587899
   0.499691300   0.500000000   0.999587899
   0.499576028   0.500000000   0.500323819
   0.000331127   0.249471897   0.249924758
   0.000331127   0.250528103   0.749924758
   0.000331127   0.750528103   0.249924758
   0.000331127   0.749471897   0.749924758
   0.499648399   0.249744771   0.250038649
   0.499648399   0.250255229   0.750038649
   0.499648399   0.750255229   0.250038649
   0.499648399   0.749744771   0.750038649
   0.249474063   0.000000000   0.750506606
   0.249474063   0.500000000   0.250506606
   0.750423972   0.000000000   0.249676181
   0.750308700   0.000000000   0.750412101
   0.750308700   0.500000000   0.250412101
   0.750423972   0.500000000   0.749676181
   0.249668873   0.249471897   0.000075242
   0.249668873   0.250528103   0.500075242
   0.249668873   0.750528103   0.000075242
   0.249668873   0.749471897   0.500075242
   0.750351601   0.249744771   0.999961351
   0.750351601   0.250255229   0.499961351
   0.750351601   0.750255229   0.999961351
   0.750351601   0.749744771   0.499961351
   0.249749884   0.251151733   0.249746120
   0.249749884   0.248848267   0.749746120
   0.249749884   0.748848267   0.249746120
   0.249749884   0.751151733   0.749746120
   0.750107668   0.249701968   0.249980959
   0.750107668   0.250298032   0.749980959
   0.750107668   0.750298032   0.249980959
   0.750107668   0.749701968   0.749980959
   0.250377477   0.000000000   0.998987919
   0.249275939   0.000000000   0.501325448
   0.249275939   0.500000000   0.001325448
   0.250377477   0.500000000   0.498987919
   0.749459115   0.000000000   0.000323010
   0.750617008   0.000000000   0.499718613
   0.750617008   0.500000000   0.999718613
   0.749459115   0.500000000   0.500323010
   0.000250116   0.251151733   0.000253880
   0.000250116   0.248848267   0.500253880
   0.000250116   0.748848267   0.000253880
   0.000250116   0.751151733   0.500253880
   0.499892332   0.249701968   0.000019041
   0.499892332   0.250298032   0.500019041
   0.499892332   0.750298032   0.000019041
   0.499892332   0.749701968   0.500019041
   0.999622523   0.000000000   0.251012081
   0.000724061   0.000000000   0.748674552
   0.000724061   0.500000000   0.248674552
   0.999622523   0.500000000   0.751012081
   0.500540885   0.000000000   0.249676990
   0.499382992   0.000000000   0.750281387
   0.499382992   0.500000000   0.250281387
   0.500540885   0.500000000   0.749676990
Mg28Ni4O32
   1.00000000
   8.442874110   0.000000000  -0.000039011
   0.000000000   8.442715644   0.000000000
  -0.000039011   0.000000000   8.442787143
  Ni  Mg  O
  4  28  32
Direct configuration=     3
   0.999994001   0.000000000   0.000555676
   0.999994001   0.500000000   0.500555676
   0.250005999   0.000000000   0.249444324
   0.250005999   0.500000000   0.749444324
   0.000618044   0.000000000   0.499476077
   0.000618044   0.500000000   0.999476077
   0.499522971   0.000000000   0.000330803
   0.499632023   0.000000000   0.499575971
   0.499632023   0.500000000   0.999575971
   0.499522971   0.500000000   0.500330803
   0.000385763   0.249442527   0.249910467
   0.000385763   0.250557473   0.749910467
   0.000385763   0.750557473   0.249910467
   0.000385763   0.749442527   0.749910467
   0.499593623   0.249755666   0.250041998
   0.499593623   0.250244334   0.750041998
   0.499593623   0.750244334   0.250041998
   0.499593623   0.749755666   0.750041998
   0.249381956   0.000000000   0.750523923
   0.249381956   0.500000000   0.250523923
   0.750477029   0.000000000   0.249669197
   0.750367977   0.000000000   0.750424029
   0.750367977   0.500000000   0.250424029
   0.750477029   0.500000000   0.749669197
   0.249614237   0.249442527   0.000089533
   0.249614237   0.250557473   0.500089533
   0.249614237   0.750557473   0.000089533
   0.249614237   0.749442527   0.500089533
   0.750406377   0.249755666   0.999958002
   0.750406377   0.250244334   0.499958002
   0.750406377   0.750244334   0.999958002
   0.750406377   0.749755666   0.499958002
   0.249710318   0.251211637   0.249723958
   0.249710318   0.248788363   0.749723958
   0.249710318   0.748788363   0.249723958
   0.249710318   0.751211637   0.749723958
   0.750138969   0.249677889   0.249983336
   0.750138969   0.250322111   0.749983336
   0.750138969   0.750322111   0.249983336
   0.750138969   0.749677889   0.749983336
   0.250358259   0.000000000   0.998927473
   0.249241862   0.000000000   0.501391330
   0.249241862   0.500000000   0.001391330
   0.250358259   0.500000000   0.498927473
   0.749458669   0.000000000   0.000349576
   0.750651206   0.000000000   0.499691412
   0.750651206   0.500000000   0.999691412
   0.749458669   0.500000000   0.500349576
   0.000289682   0.251211637   0.000276042
   0.000289682   0.248788363   0.500276042
   0.000289682   0.748788363   0.000276042
   0.000289682   0.751211637   0.500276042
   0.499861031   0.249677889   0.000016664
   0.499861031   0.250322111   0.500016664
   0.499861031   0.750322111   0.000016664
   0.499861031   0.749677889   0.500016664
   0.999641741   0.000000000   0.251072527
   0.000758138   0.000000000   0.748608670
   0.000758138   0.500000000   0.248608670
   0.999641741   0.500000000   0.751072527
   0.500541331   0.000000000   0.249650424
   0.499348794   0.000000000   0.750308588
   0.499348794   0.500000000   0.250308588
   0.500541331   0.500000000   0.749650424
Mg28Ni4O32
   1.00000000
   8.452093432  -0.000000000  -0.000173890
  -0.000000000   8.451425065   0.000000000
  -0.000173890   0.000000000   8.451747881
  Ni  Mg  O
  4  28  32
Direct configuration=     4
   0.999935966   0.000000000   0.000802924
   0.999935966   0.500000000   0.500802924
   0.250064034   0.000000000   0.249197076
   0.250064034   0.500000000   0.749197076
   0.001926758   0.000000000   0.499437110
   0.001926758   0.500000000   0.999437110
   0.498847229   0.000000000   0.000281191
   0.498772186   0.000000000   0.499584538
   0.498772186   0.500000000   0.999584538
   0.498847229   0.500000000   0.500281191
   0.001143949   0.249206437   0.249712904
   0.001143949   0.250793563   0.749712904
   0.001143949   0.750793563   0.249712904
   0.001143949   0.749206437   0.749712904
   0.498843779   0.250081081   0.250079163
   0.498843779   0.249918919   0.750079163
   0.498843779   0.749918919   0.250079163
   0.498843779   0.750081081   0.750079163
   0.248073242   0.000000000   0.750562890
   0.248073242   0.500000000   0.250562890
   0.751152771   0.000000000   0.249718809
   0.751227814   0.000000000   0.750415462
   0.751227814   0.500000000   0.250415462
   0.751152771   0.500000000   0.749718809
   0.248856051   0.249206437   0.000287096
   0.248856051   0.250793563   0.500287096
   0.248856051   0.750793563   0.000287096
   0.248856051   0.749206437   0.500287096
   0.751156221   0.250081081   0.999920837
   0.751156221   0.249918919   0.499920837
   0.751156221   0.749918919   0.999920837
   0.751156221   0.750081081   0.499920837
   0.249151519   0.251627975   0.249482560
   0.249151519   0.248372025   0.749482560
   0.249151519   0.748372025   0.249482560
   0.249151519   0.751627975   0.749482560
   0.750639085   0.249431501   0.250033307
   0.750639085   0.250568499   0.750033307
   0.750639085   0.750568499   0.250033307
   0.750639085   0.749431501   0.750033307
   0.249785700   0.000000000   0.998425566
   0.249047156   0.000000000   0.501817909
   0.249047156   0.500000000   0.001817909
   0.249785700   0.500000000   0.498425566
   0.749772180   0.000000000   0.000629697
   0.750922391   0.000000000   0.499383178
   0.750922391   0.500000000   0.999383178
   0.749772180   0.500000000   0.500629697
   0.000848481   0.251627975   0.000517440
   0.000848481   0.248372025   0.500517440
   0.000848481   0.748372025   0.000517440
   0.000848481   0.751627975   0.500517440
   0.499360915   0.249431501   0.999966693
   0.499360915   0.250568499   0.499966693
   0.499360915   0.750568499   0.999966693
   0.499360915   0.749431501   0.499966693
   0.000214300   0.000000000   0.251574434
   0.000952844   0.000000000   0.748182091
   0.000952844   0.500000000   0.248182091
   0.000214300   0.500000000   0.751574434
   0.500227820   0.000000000   0.249370303
   0.499077609   0.000000000   0.750616822
   0.499077609   0.500000000   0.250616822
   0.500227820   0.500000000   0.749370303
Mg28Ni4O32
   1.00000000
   8.458929782  -0.000000000  -0.000274609
  -0.000000000   8.457882011   0.000000000
  -0.000274610   0.000000000   8.458395177
  Ni  Mg  O
  4  28  32
Direct configuration=     5
   0.999881315   0.000000000   0.000835432
   0.999881315   0.500000000   0.500835432
   0.250118685   0.000000000   0.249164568
   0.250118685   0.500000000   0.749164568
   0.002676665   0.000000000   0.499539761
   0.002676665   0.500000000   0.999539761
   0.498525164   0.000000000   0.000156100
   0.498262812   0.000000000   0.499702749
   0.498262812   0.500000000   0.999702749
   0.498525164   0.500000000   0.500156100
   0.001554145   0.249179331   0.249614322
   0.001554145   0.250820669   0.749614322
   0.001554145   0.750820669   0.249614322
   0.001554145   0.749179331   0.749614322
   0.498438781   0.250384298   0.250093207
   0.498438781   0.249615702   0.750093207
   0.498438781   0.749615702   0.250093207
   0.498438781   0.750384298   0.750093207
   0.247323335   0.000000000   0.750460239
   0.247323335   0.500000000   0.250460239
   0.751474836   0.000000000   0.249843900
   0.751737188   0.000000000   0.750297251
   0.751737188   0.500000000   0.250297251
   0.751474836   0.500000000   0.749843900
   0.248445855   0.249179331   0.000385678
   0.248445855   0.250820669   0.500385678
   0.248445855   0.750820669   0.000385678
   0.248445855   0.749179331   0.500385678
   0.751561219   0.250384298   0.999906793
   0.751561219   0.249615702   0.499906793
   0.751561219   0.749615702   0.999906793
   0.751561219   0.750384298   0.499906793
   0.248826509   0.251572571   0.249399883
   0.248826509   0.248427429   0.749399883
   0.248826509   0.748427429   0.249399883
   0.248826509   0.751572571   0.749399883
   0.750984669   0.249365056   0.250071412
   0.750984669   0.250634944   0.750071412
   0.750984669   0.750634944   0.250071412
   0.750984669   0.749365056   0.750071412
   0.249210074   0.000000000   0.998376621
   0.249139641   0.000000000   0.501716923
   0.249139641   0.500000000   0.001716923
   0.249210074   0.500000000   0.498376621
   0.750206587   0.000000000   0.000720000
   0.750945715   0.000000000   0.499271000
   0.750945715   0.500000000   0.999271000
   0.750206587   0.500000000   0.500720000
   0.001173491   0.251572571   0.000600117
   0.001173491   0.248427429   0.500600117
   0.001173491   0.748427429   0.000600117
   0.001173491   0.751572571   0.500600117
   0.499015331   0.249365056   0.999928588
   0.499015331   0.250634944   0.499928588
   0.499015331   0.750634944   0.999928588
   0.499015331   0.749365056   0.499928588
   0.000789926   0.000000000   0.251623379
   0.000860359   0.000000000   0.748283077
   0.000860359   0.500000000   0.248283077
   0.000789926   0.500000000   0.751623379
   0.499793413   0.000000000   0.249280000
   0.499054285   0.000000000   0.750729000
   0.499054285   0.500000000   0.250729000
   0.499793413   0.500000000   0.749280000
Mg28Ni4O32
   1.00000000
   8.466337197  -0.000000000  -0.000383998
  -0.000000000   8.464873499   0.000000000
  -0.000383999   0.000000000   8.465597499
  Ni  Mg  O
  4  28  32
Direct configuration=     6
   0.999810944   0.000000000   0.000775007
   0.999810944   0.500000000   0.500775007
   0.250189056   0.000000000   0.249224993
   0.250189056   0.500000000   0.749224993
   0.003170518   0.000000000   0.499695369
   0.003170518   0.500000000   0.999695369
   0.498389448   0.000000000   0.999993397
   0.497906146   0.000000000   0.499871867
   0.497906146   0.500000000   0.999871867
   0.498389448   0.500000000   0.499993397
   0.001781768   0.249236554   0.249580888
   0.001781768   0.250763446   0.749580888
   0.001781768   0.750763446   0.249580888
   0.001781768   0.749236554   0.749580888
   0.498202414   0.250691211   0.250095126
   0.498202414   0.249308789   0.750095126
   0.498202414   0.749308789   0.250095126
   0.498202414   0.750691211   0.750095126
   0.246829482   0.000000000   0.750304631
   0.246829482   0.500000000   0.250304631
   0.751610552   0.000000000   0.250006603
   0.752093854   0.000000000   0.750128133
   0.752093854   0.500000000   0.250128133
   0.751610552   0.500000000   0.750006603
   0.248218232   0.249236554   0.000419112
   0.248218232   0.250763446   0.500419112
   0.248218232   0.750763446   0.000419112
   0.248218232   0.749236554   0.500419112
   0.751797586   0.250691211   0.999904874
   0.751797586   0.249308789   0.499904874
   0.751797586   0.749308789   0.999904874
   0.751797586   0.750691211   0.499904874
   0.248601008   0.251273390   0.249405003
   0.248601008   0.248726610   0.749405003
   0.248601008   0.748726610   0.249405003
   0.248601008   0.751273390   0.749405003
   0.751295629   0.249401418   0.250102801
   0.751295629   0.250598582   0.750102801
   0.751295629   0.750598582   0.250102801
   0.751295629   0.749401418   0.750102801
   0.248540609   0.000000000   0.998552867
   0.249393601   0.000000000   0.501339501
   0.249393601   0.500000000   0.001339501
   0.248540609   0.500000000   0.498552867
   0.750779707   0.000000000   0.000712794
   0.750860036   0.000000000   0.499271028
   0.750860036   0.500000000   0.999271028
   0.750779707   0.500000000   0.500712794
   0.001398992   0.251273390   0.000594997
   0.001398992   0.248726610   0.500594997
   0.001398992   0.748726610   0.000594997
   0.001398992   0.751273390   0.500594997
   0.498704371   0.249401418   0.999897199
   0.498704371   0.250598582   0.499897199
   0.498704371   0.750598582   0.999897199
   0.498704371   0.749401418   0.499897199
   0.001459391   0.000000000   0.251447133
   0.000606399   0.000000000   0.748660499
   0.000606399   0.500000000   0.248660499
   0.001459391   0.500000000   0.751447133
   0.499220293   0.000000000   0.249287206
   0.499139964   0.000000000   0.750728972
   0.499139964   0.500000000   0.250728972
   0.499220293   0.500000000   0.749287206
Mg28Ni4O32
   1.00000000
   8.472052574  -0.000000000  -0.000468213
  -0.000000000   8.470260832   0.000000000
  -0.000468214   0.000000000   8.471151797
  Ni  Mg  O
  4  28  32
Direct configuration=     7
   0.999754543   0.000000000   0.000706162
   0.999754543   0.500000000   0.500706162
   0.250245457   0.000000000   0.249293838
   0.250245457   0.500000000   0.749293838
   0.003202790   0.000000000   0.499767444
   0.003202790   0.500000000   0.999767444
   0.498483249   0.000000000   0.999907907
   0.497854729   0.000000000   0.499964307
   0.497854729   0.500000000   0.999964307
   0.498483249   0.500000000   0.499907907
   0.001727304   0.249291689   0.249635525
   0.001727304   0.250708311   0.749635525
   0.001727304   0.750708311   0.249635525
   0.001727304   0.749291689   0.749635525
   0.498230652   0.250824783   0.250085846
   0.498230652   0.249175217   0.750085846
   0.498230652   0.749175217   0.250085846
   0.498230652   0.750824783   0.750085846
   0.246797210   0.000000000   0.750232556
   0.246797210   0.500000000   0.250232556
   0.751516751   0.000000000   0.250092093
   0.752145271   0.000000000   0.750035693
   0.752145271   0.500000000   0.250035693
   0.751516751   0.500000000   0.750092093
   0.248272696   0.249291689   0.000364475
   0.248272696   0.250708311   0.500364475
   0.248272696   0.750708311   0.000364475
   0.248272696   0.749291689   0.500364475
   0.751769348   0.250824783   0.999914154
   0.751769348   0.249175217   0.499914154
   0.751769348   0.749175217   0.999914154
   0.751769348   0.750824783   0.499914154
   0.248568897   0.250985393   0.249479274
   0.248568897   0.249014607   0.749479274
   0.248568897   0.749014607   0.249479274
   0.248568897   0.750985393   0.749479274
   0.751432303   0.249498740   0.250108763
   0.751432303   0.250501260   0.750108763
   0.751432303   0.750501260   0.250108763
   0.751432303   0.749498740   0.750108763
   0.248115808   0.000000000   0.998771555
   0.249618003   0.000000000   0.500994474
   0.249618003   0.500000000   0.000994474
   0.248115808   0.500000000   0.498771555
   0.751179796   0.000000000   0.000643130
   0.750768689   0.000000000   0.499363627
   0.750768689   0.500000000   0.999363627
   0.751179796   0.500000000   0.500643130
   0.001431103   0.250985393   0.000520726
   0.001431103   0.249014607   0.500520726
   0.001431103   0.749014607   0.000520726
   0.001431103   0.750985393   0.500520726
   0.498567697   0.249498740   0.999891237
   0.498567697   0.250501260   0.499891237
   0.498567697   0.750501260   0.999891237
   0.498567697   0.749498740   0.499891237
   0.001884192   0.000000000   0.251228445
   0.000381997   0.000000000   0.749005526
   0.000381997   0.500000000   0.249005526
   0.001884192   0.500000000   0.751228445
   0.498820204   0.000000000   0.249356870
   0.499231311   0.000000000   0.750636373
   0.499231311   0.500000000   0.250636373
   0.498820204   0.500000000   0.749356870
Mg28Ni4O32
   1.00000000
   8.480426149  -0.000000000  -0.000591109
  -0.000000000   8.478144348   0.000000000
  -0.000591110   0.000000000   8.479284624
  Ni  Mg  O
  4  28  32
Direct configuration=     8
   0.999688677   0.000000000   0.000648439
   0.999688677   0.500000000   0.500648439
   0.250311323   0.000000000   0.249351561
   0.250311323   0.500000000   0.749351561
   0.002864604   0.000000000   0.499746066
   0.002864604   0.500000000   0.999746066
   0.498803222   0.000000000   0.999886417
   0.498035815   0.000000000   0.499987133
   0.498035815   0.500000000   0.999987133
   0.498803222   0.500000000   0.499886417
   0.001409943   0.249320669   0.249798066
   0.001409943   0.250679331   0.749798066
   0.001409943   0.750679331   0.249798066
   0.001409943   0.749320669   0.749798066
   0.498492911   0.250834154   0.250062827
   0.498492911   0.249165846   0.750062827
   0.498492911   0.749165846   0.250062827
   0.498492911   0.750834154   0.750062827
   0.247135396   0.000000000   0.750253934
   0.247135396   0.500000000   0.250253934
   0.751196778   0.000000000   0.250113583
   0.751964185   0.000000000   0.750012867
   0.751964185   0.500000000   0.250012867
   0.751196778   0.500000000   0.750113583
   0.248590057   0.249320669   0.000201934
   0.248590057   0.250679331   0.500201934
   0.248590057   0.750679331   0.000201934
   0.248590057   0.749320669   0.500201934
   0.751507089   0.250834154   0.999937173
   0.751507089   0.249165846   0.499937173
   0.751507089   0.749165846   0.999937173
   0.751507089   0.750834154   0.499937173
   0.248689847   0.250685268   0.249631730
   0.248689847   0.249314732   0.749631730
   0.248689847   0.749314732   0.249631730
   0.248689847   0.750685268   0.749631730
   0.751465282   0.249662122   0.250091916
   0.751465282   0.250337878   0.750091916
   0.751465282   0.750337878   0.250091916
   0.751465282   0.749662122   0.750091916
   0.247754778   0.000000000   0.999033398
   0.249848825   0.000000000   0.500647958
   0.249848825   0.500000000   0.000647958
   0.247754778   0.500000000   0.499033398
   0.751547529   0.000000000   0.000523552
   0.750683529   0.000000000   0.499552329
   0.750683529   0.500000000   0.999552329
   0.751547529   0.500000000   0.500523552
   0.001310153   0.250685268   0.000368270
   0.001310153   0.249314732   0.500368270
   0.001310153   0.749314732   0.000368270
   0.001310153   0.750685268   0.500368270
   0.498534718   0.249662122   0.999908084
   0.498534718   0.250337878   0.499908084
   0.498534718   0.750337878   0.999908084
   0.498534718   0.749662122   0.499908084
   0.002245222   0.000000000   0.250966602
   0.000151175   0.000000000   0.749352042
   0.000151175   0.500000000   0.249352042
   0.002245222   0.500000000   0.750966602
   0.498452471   0.000000000   0.249476448
   0.499316471   0.000000000   0.750447671
   0.499316471   0.500000000   0.250447671
   0.498452471   0.500000000   0.749476448
Mg28Ni4O32
   1.00000000
   8.489644792  -0.000000000  -0.000726139
  -0.000000000   8.486813500   0.000000000
  -0.000726139   0.000000000   8.488233212
  Ni  Mg  O
  4  28  32
Direct configuration=     9
   0.999658276   0.000000000   0.000660546
   0.999658276   0.500000000   0.500660546
   0.250341724   0.000000000   0.249339454
   0.250341724   0.500000000   0.749339454
   0.002186822   0.000000000   0.499584287
   0.002186822   0.500000000   0.999584287
   0.499261039   0.000000000   0.999985664
   0.498444194   0.000000000   0.499875243
   0.498444194   0.500000000   0.999875243
   0.499261039   0.500000000   0.499985664
   0.000900134   0.249279688   0.250026240
   0.000900134   0.250720312   0.750026240
   0.000900134   0.750720312   0.250026240
   0.000900134   0.749279688   0.750026240
   0.498942091   0.250640681   0.250030759
   0.498942091   0.249359319   0.750030759
   0.498942091   0.749359319   0.250030759
   0.498942091   0.750640681   0.750030759
   0.247813178   0.000000000   0.750415713
   0.247813178   0.500000000   0.250415713
   0.750738961   0.000000000   0.250014336
   0.751555806   0.000000000   0.750124757
   0.751555806   0.500000000   0.250124757
   0.750738961   0.500000000   0.750014336
   0.249099866   0.249279688   0.999973760
   0.249099866   0.250720312   0.499973760
   0.249099866   0.750720312   0.999973760
   0.249099866   0.749279688   0.499973760
   0.751057909   0.250640681   0.999969241
   0.751057909   0.249359319   0.499969241
   0.751057909   0.749359319   0.999969241
   0.751057909   0.750640681   0.499969241
   0.248977219   0.250594304   0.249800619
   0.248977219   0.249405696   0.749800619
   0.248977219   0.749405696   0.249800619
   0.248977219   0.750594304   0.749800619
   0.751296862   0.249799718   0.250051143
   0.751296862   0.250200282   0.750051143
   0.751296862   0.750200282   0.250051143
   0.751296862   0.749799718   0.750051143
   0.247736462   0.000000000   0.999162131
   0.249922595   0.000000000   0.500563711
   0.249922595   0.500000000   0.000563711
   0.247736462   0.500000000   0.499162131
   0.751599457   0.000000000   0.000429113
   0.750672193   0.000000000   0.499746000
   0.750672193   0.500000000   0.999746000
   0.751599457   0.500000000   0.500429113
   0.001022781   0.250594304   0.000199381
   0.001022781   0.249405696   0.500199381
   0.001022781   0.749405696   0.000199381
   0.001022781   0.750594304   0.500199381
   0.498703138   0.249799718   0.999948857
   0.498703138   0.250200282   0.499948857
   0.498703138   0.750200282   0.999948857
   0.498703138   0.749799718   0.499948857
   0.002263538   0.000000000   0.250837869
   0.000077405   0.000000000   0.749436289
   0.000077405   0.500000000   0.249436289
   0.002263538   0.500000000   0.750837869
   0.498400543   0.000000000   0.249570887
   0.499327807   0.000000000   0.750254000
   0.499327807   0.500000000   0.250254000
   0.498400543   0.500000000   0.749570887
Mg28Ni4O32
   1.00000000
   8.496622861  -0.000000000  -0.000828997
  -0.000000000   8.493364238   0.000000000
  -0.000828996   0.000000000   8.495001736
  Ni  Mg  O
  4  28  32
Direct configuration=     10
   0.999699558   0.000000000   0.000729230
   0.999699558   0.500000000   0.500729230
   0.250300442   0.000000000   0.249270770
   0.250300442   0.500000000   0.749270770
   0.001475078   0.000000000   0.499375981
   0.001475078   0.500000000   0.999375981
   0.499632614   0.000000000   0.000159088
   0.498893066   0.000000000   0.499681244
   0.498893066   0.500000000   0.999681244
   0.499632614   0.500000000   0.500159088
   0.000447867   0.249206165   0.250202971
   0.000447867   0.250793835   0.750202971
   0.000447867   0.750793835   0.250202971
   0.000447867   0.749206165   0.750202971
   0.499367821   0.250325439   0.250001304
   0.499367821   0.249674561   0.750001304
   0.499367821   0.749674561   0.250001304
   0.499367821   0.750325439   0.750001304
   0.248524922   0.000000000   0.750624019
   0.248524922   0.500000000   0.250624019
   0.750367386   0.000000000   0.249840912
   0.751106934   0.000000000   0.750318756
   0.751106934   0.500000000   0.250318756
   0.750367386   0.500000000   0.749840912
   0.249552133   0.249206165   0.999797029
   0.249552133   0.250793835   0.499797029
   0.249552133   0.750793835   0.999797029
   0.249552133   0.749206165   0.499797029
   0.750632179   0.250325439   0.999998696
   0.750632179   0.249674561   0.499998696
   0.750632179   0.749674561   0.999998696
   0.750632179   0.750325439   0.499998696
   0.249325545   0.250771240   0.249896246
   0.249325545   0.249228760   0.749896246
   0.249325545   0.749228760   0.249896246
   0.249325545   0.750771240   0.749896246
   0.750949317   0.249818387   0.250008152
   0.750949317   0.250181613   0.750008152
   0.750949317   0.750181613   0.250008152
   0.750949317   0.749818387   0.750008152
   0.248150120   0.000000000   0.999088261
   0.249791173   0.000000000   0.500804577
   0.249791173   0.500000000   0.000804577
   0.248150120   0.500000000   0.499088261
   0.751230111   0.000000000   0.000426402
   0.750722173   0.000000000   0.499823836
   0.750722173   0.500000000   0.999823836
   0.751230111   0.500000000   0.500426402
   0.000674455   0.250771240   0.000103754
   0.000674455   0.249228760   0.500103754
   0.000674455   0.749228760   0.000103754
   0.000674455   0.750771240   0.500103754
   0.499050683   0.249818387   0.999991848
   0.499050683   0.250181613   0.499991848
   0.499050683   0.750181613   0.999991848
   0.499050683   0.749818387   0.499991848
   0.001849880   0.000000000   0.250911739
   0.000208827   0.000000000   0.749195423
   0.000208827   0.500000000   0.249195423
   0.001849880   0.500000000   0.750911739
   0.498769889   0.000000000   0.249573598
   0.499277827   0.000000000   0.750176164
   0.499277827   0.500000000   0.250176164
   0.498769889   0.500000000   0.749573598
Mg28Ni4O32
   1.00000000
   8.499269124  -0.000000000  -0.000869994
  -0.000000000   8.495835345   0.000000000
  -0.000869992   0.000000000   8.497563061
  Ni  Mg  O
  4  28  32
Direct configuration=     11
   0.999786423   0.000000000   0.000769208
   0.999786423   0.500000000   0.500769208
   0.250213577   0.000000000   0.249230792
   0.250213577   0.500000000   0.749230792