H107LiMg53
   1.00000000
   13.503017410   0.000003104  -0.000000000
   0.000003104   13.503017410   0.000000000
  -0.000000000   0.000000000   9.029982979
  Li  Mg  H
  1  53  107
Direct configuration=     1
   0.999838132   0.999838132   1.000000000
   0.999989801   0.999989801   0.332948157
   0.999989801   0.999989800   0.667051843
   0.999979629   0.333350678   0.000000000
   0.999988974   0.333322317   0.333342139
   0.999988975   0.333322317   0.666657861
   0.000000016   0.666694362   0.000000000
   0.000000567   0.666676659   0.333328076
   0.000000567   0.666676660   0.666671924
   0.333350678   0.999979629   1.000000000
   0.333322317   0.999988975   0.333342139
   0.333322317   0.999988975   0.666657861
   0.333360263   0.333360263   1.000000000
   0.333318774   0.333318774   0.333325243
   0.333318774   0.333318774   0.666674757
   0.333327942   0.666671886   1.000000000
   0.333332153   0.666668731   0.333335316
   0.333332153   0.666668731   0.666664684
   0.666694362   0.000000016   1.000000000
   0.666676660   0.000000567   0.333328076
   0.666676659   0.000000567   0.666671924
   0.666671886   0.333327942   1.000000000
   0.666668731   0.333332152   0.333335316
   0.666668731   0.333332153   0.666664684
   0.666670695   0.666670696   1.000000000
   0.666671122   0.666671122   0.333328606
   0.666671122   0.666671122   0.666671394
   0.166786180   0.166786180   0.167106242
   0.166666895   0.166666896   0.500000000
   0.166786180   0.166786180   0.832893757
   0.166662278   0.500001420   0.166664454
   0.166664854   0.500000537   0.500000000
   0.166662277   0.500001420   0.833335546
   0.166536360   0.833464848   0.166628149
   0.166661046   0.833345385   0.500000000
   0.166536360   0.833464848   0.833371851
   0.500001420   0.166662277   0.166664453
   0.500000537   0.166664854   0.500000000
   0.500001420   0.166662277   0.833335546
   0.500001325   0.500001326   0.166667123
   0.500000097   0.500000097   0.500000000
   0.500001325   0.500001325   0.833332877
   0.499998004   0.833339944   0.166664945
   0.500000487   0.833335424   0.500000000
   0.499998004   0.833339943   0.833335055
   0.833464848   0.166536361   0.166628149
   0.833345385   0.166661046   0.500000000
   0.833464848   0.166536361   0.833371851
   0.833339943   0.499998004   0.166664945
   0.833335424   0.500000487   0.500000000
   0.833339943   0.499998004   0.833335055
   0.833457479   0.833457479   0.166485365
   0.833344455   0.833344455   0.500000000
   0.833457479   0.833457479   0.833514635
   0.101457239   0.101457239   0.333368227
   0.101457239   0.101457239   0.666631773
   0.101440810   0.434769889   1.000000000
   0.101439512   0.434774171   0.333332253
   0.101439512   0.434774171   0.666667747
   0.101460643   0.768079031   0.000000000
   0.101438192   0.768083332   0.333355791
   0.101438192   0.768083332   0.666644209
   0.434769889   0.101440810   1.000000000
   0.434774171   0.101439512   0.333332253
   0.434774171   0.101439512   0.666667747
   0.434772049   0.434772049   1.000000000
   0.434771310   0.434771310   0.333333611
   0.434771310   0.434771310   0.666666389
   0.434772962   0.768104569   1.000000000
   0.434772899   0.768105102   0.333332798
   0.434772899   0.768105102   0.666667202
   0.768079031   0.101460643   0.000000000
   0.768083332   0.101438193   0.333355791
   0.768083332   0.101438193   0.666644209
   0.768104569   0.434772962   0.000000000
   0.768105102   0.434772899   0.333332798
   0.768105102   0.434772899   0.666667202
   0.768037458   0.768037458   0.000000000
   0.768109270   0.768109270   0.333324958
   0.768109270   0.768109270   0.666675042
   0.231689463   0.231689463   0.000000000
   0.231897618   0.231897618   0.333306964
   0.231897618   0.231897618   0.666693036
   0.231894615   0.565228125   1.000000000
   0.231894046   0.565227562   0.333331815
   0.231894046   0.565227562   0.666668186
   0.231906324   0.898571996   0.000000000
   0.231914951   0.898557076   0.333358108
   0.231914951   0.898557076   0.666641892
   0.565228125   0.231894615   0.000000000
   0.565227562   0.231894046   0.333331814
   0.565227562   0.231894046   0.666668186
   0.565227084   0.565227084   1.000000000
   0.565227751   0.565227751   0.333332797
   0.565227751   0.565227751   0.666667203
   0.565227506   0.898559444   0.000000000
   0.565228799   0.898561359   0.333332450
   0.565228799   0.898561359   0.666667550
   0.898571996   0.231906324   0.000000000
   0.898557076   0.231914951   0.333358108
   0.898557076   0.231914951   0.666641892
   0.898559444   0.565227505   0.000000000
   0.898561359   0.565228800   0.333332450
   0.898561359   0.565228800   0.666667550
   0.898406799   0.898406799   0.000000000
   0.898536806   0.898536806   0.333403668
   0.898536806   0.898536806   0.666596332
   0.065246567   0.268044098   0.166588338
   0.065219271   0.268107938   0.500000000
   0.065246567   0.268044098   0.833411662
   0.065228603   0.601438957   0.166668879
   0.065228372   0.601439403   0.500000000
   0.065228603   0.601438957   0.833331121
   0.065377803   0.934733618   0.166863576
   0.065210838   0.934785029   0.500000000
   0.065377803   0.934733619   0.833136423
   0.398555859   0.268101789   0.166661219
   0.398567853   0.268107191   0.500000000
   0.398555859   0.268101789   0.833338782
   0.398560541   0.601439938   0.166666244
   0.398560902   0.601439342   0.500000000
   0.398560541   0.601439937   0.833333756
   0.398555199   0.934776121   0.166659908
   0.398562293   0.934771805   0.500000000
   0.398555199   0.934776121   0.833340092
   0.731898566   0.268101099   0.166666283
   0.731894217   0.268105171   0.500000000
   0.731898566   0.268101099   0.833333717
   0.731896849   0.601440793   0.166665883
   0.731894727   0.601438254   0.500000000
   0.731896848   0.601440793   0.833334117
   0.731858622   0.934781399   0.166694923
   0.731899382   0.934772759   0.500000000
   0.731858622   0.934781399   0.833305077
   0.268044098   0.065246568   0.166588338
   0.268107938   0.065219271   0.500000000
   0.268044098   0.065246568   0.833411662
   0.268101789   0.398555859   0.166661219
   0.268107191   0.398567853   0.500000000
   0.268101788   0.398555859   0.833338781
   0.268101099   0.731898566   0.166666283
   0.268105171   0.731894218   0.500000000
   0.268101100   0.731898566   0.833333717
   0.601438957   0.065228603   0.166668879
   0.601439403   0.065228371   0.500000000
   0.601438957   0.065228603   0.833331121
   0.601439937   0.398560541   0.166666244
   0.601439342   0.398560902   0.500000000
   0.601439937   0.398560541   0.833333756
   0.601440793   0.731896848   0.166665883
   0.601438254   0.731894727   0.500000000
   0.601440793   0.731896848   0.833334117
   0.934733618   0.065377803   0.166863577
   0.934785029   0.065210838   0.500000000
   0.934733618   0.065377803   0.833136423
   0.934776121   0.398555199   0.166659908
   0.934771805   0.398562293   0.500000000
   0.934776121   0.398555199   0.833340092
   0.934781399   0.731858622   0.166694923
   0.934772759   0.731899382   0.500000000
   0.934781399   0.731858622   0.833305076
H107LiMg53
   1.00000000
   13.503242215   0.000042419   0.000000000
   0.000042419   13.503242217   0.000000000
   0.000000000   0.000000000   9.029768237
  Li  Mg  H
  1  53  107
Direct configuration=     2
   0.997807461   0.997807461   0.999999998
   0.999869187   0.999869189   0.328515529
   0.999869187   0.999869187   0.671484469
   0.999738376   0.333567858   0.000000011
   0.999861987   0.333189134   0.333423241
   0.999861986   0.333189142   0.666576751
   0.999998983   0.667005436   0.000000018
   0.000008017   0.666786120   0.333287364
   0.000008020   0.666786126   0.666712605
   0.333567858   0.999738375   0.000000013
   0.333189135   0.999861989   0.333423243
   0.333189140   0.999861987   0.666576751
   0.333620220   0.333620222   0.000000012
   0.333164038   0.333164040   0.333226006
   0.333164038   0.333164045   0.666773994
   0.333256527   0.666744257   0.000000008
   0.333315262   0.666696437   0.333352645
   0.333315258   0.666696439   0.666647342
   0.667005431   0.999998984   0.000000016
   0.666786121   0.000008016   0.333287365
   0.666786124   0.000008018   0.666712608
   0.666744261   0.333256524   0.000000009
   0.666696439   0.333315257   0.333352645
   0.666696442   0.333315259   0.666647340
   0.666700109   0.666700112   0.000000031
   0.666731132   0.666731138   0.333278400
   0.666731131   0.666731138   0.666721572
   0.168246085   0.168246084   0.172329565
   0.166656138   0.166656135   0.500000027
   0.168246079   0.168246078   0.827670403
   0.166603282   0.500023134   0.166634414
   0.166637946   0.500013766   0.500000011
   0.166603280   0.500023128   0.833365567
   0.165044292   0.834982125   0.166206004
   0.166573587   0.833505983   0.500000023
   0.165044297   0.834982122   0.833793996
   0.500023131   0.166603281   0.166634419
   0.500013768   0.166637947   0.500000009
   0.500023128   0.166603278   0.833365560
   0.500020153   0.500020158   0.166671995
   0.500001069   0.500001071   0.500000016
   0.500020154   0.500020155   0.833328004
   0.499975076   0.833421227   0.166639286
   0.500009429   0.833362718   0.500000018
   0.499975077   0.833421224   0.833360677
   0.834982123   0.165044293   0.166205998
   0.833505985   0.166573588   0.500000024
   0.834982121   0.165044296   0.833793994
   0.833421230   0.499975076   0.166639290
   0.833362716   0.500009428   0.500000020
   0.833421224   0.499975072   0.833360677
   0.834916124   0.834916122   0.164425055
   0.833455901   0.833455899   0.500000018
   0.834916126   0.834916126   0.835574927
   0.101740615   0.101740615   0.333833771
   0.101740621   0.101740623   0.666166236
   0.101533748   0.434802139   0.000000009
   0.101511278   0.434850240   0.333319781
   0.101511278   0.434850238   0.666680210
   0.101790948   0.767837150   0.000000006
   0.101509491   0.767882072   0.333632106
   0.101509490   0.767882075   0.666367877
   0.434802139   0.101533749   0.000000009
   0.434850240   0.101511276   0.333319778
   0.434850240   0.101511277   0.666680211
   0.434840113   0.434840115   0.000000004
   0.434817222   0.434817224   0.333338514
   0.434817225   0.434817224   0.666661462
   0.434846014   0.768159848   0.000000013
   0.434845262   0.768167118   0.333330280
   0.434845267   0.768167121   0.666669723
   0.767837153   0.101790948   0.000000007
   0.767882072   0.101509491   0.333632108
   0.767882075   0.101509491   0.666367878
   0.768159848   0.434846016   0.000000015
   0.768167117   0.434845262   0.333330277
   0.768167120   0.434845268   0.666669725
   0.767293768   0.767293769   0.000000007
   0.768242780   0.768242781   0.333171428
   0.768242781   0.768242783   0.666828563
   0.229161053   0.229161052   0.000000015
   0.231911661   0.231911664   0.333110140
   0.231911659   0.231911660   0.666889841
   0.231830838   0.565166581   0.000000005
   0.231823435   0.565161449   0.333317164
   0.231823433   0.565161446   0.666682827
   0.231973289   0.898635785   0.000000005
   0.232101823   0.898428524   0.333665919
   0.232101821   0.898428524   0.666334064
   0.565166583   0.231830842   0.000000008
   0.565161449   0.231823433   0.333317163
   0.565161447   0.231823432   0.666682824
   0.565157175   0.565157177   0.000000008
   0.565167689   0.565167687   0.333329998
   0.565167692   0.565167692   0.666669997
   0.565166458   0.898475425   0.000000015
   0.565178778   0.898495896   0.333326298
   0.565178773   0.898495889   0.666673696
   0.898635785   0.231973289   0.000000010
   0.898428523   0.232101822   0.333665924
   0.898428521   0.232101819   0.666334060
   0.898475424   0.565166457   0.000000017
   0.898495894   0.565178777   0.333326293
   0.898495891   0.565178776   0.666673695
   0.896534855   0.896534858   0.000000010
   0.898193361   0.898193359   0.334214966
   0.898193358   0.898193358   0.665785029
   0.065389396   0.267367564   0.165648715
   0.065059317   0.268204363   0.500000007
   0.065389400   0.267367562   0.834351279
   0.065177062   0.601507961   0.166688813
   0.065171374   0.601514850   0.500000011
   0.065177061   0.601507960   0.833311179
   0.067058793   0.934411741   0.169188369
   0.064916744   0.935026859   0.500000009
   0.067058795   0.934411743   0.830811624
   0.398411237   0.268115669   0.166577458
   0.398572543   0.268192271   0.500000009
   0.398411234   0.268115670   0.833422534
   0.398487349   0.601518293   0.166656024
   0.398489064   0.601515009   0.500000009
   0.398487351   0.601518292   0.833343967
   0.398408585   0.934891471   0.166577811
   0.398510848   0.934826891   0.500000008
   0.398408584   0.934891471   0.833422177
   0.731925729   0.268070719   0.166659241
   0.731826176   0.268165644   0.500000009
   0.731925728   0.268070719   0.833340752
   0.731859824   0.601525758   0.166656422
   0.731831064   0.601497579   0.500000014
   0.731859828   0.601525754   0.833343563
   0.731370420   0.934946719   0.167025884
   0.731890558   0.934843280   0.500000013
   0.731370424   0.934946717   0.832974104
   0.267367564   0.065389396   0.165648714
   0.268204364   0.065059316   0.500000008
   0.267367560   0.065389400   0.834351278
   0.268115668   0.398411234   0.166577457
   0.268192271   0.398572542   0.500000013
   0.268115671   0.398411234   0.833422531
   0.268070719   0.731925728   0.166659244
   0.268165643   0.731826178   0.500000011
   0.268070721   0.731925729   0.833340753
   0.601507960   0.065177059   0.166688812
   0.601514849   0.065171375   0.500000013
   0.601507960   0.065177061   0.833311184
   0.601518294   0.398487349   0.166656023
   0.601515007   0.398489065   0.500000013
   0.601518292   0.398487350   0.833343969
   0.601525763   0.731859822   0.166656425
   0.601497579   0.731831062   0.500000017
   0.601525756   0.731859826   0.833343555
   0.934411740   0.067058797   0.169188368
   0.935026859   0.064916745   0.500000010
   0.934411744   0.067058792   0.830811624
   0.934891470   0.398408587   0.166577811
   0.934826892   0.398510847   0.500000008
   0.934891470   0.398408585   0.833422177
   0.934946720   0.731370421   0.167025883
   0.934843279   0.731890559   0.500000013
   0.934946718   0.731370422   0.832974101
H107LiMg53
   1.00000000
   13.503262559   0.000044789   0.000000000
   0.000044789   13.503262560   0.000000000
   0.000000000   0.000000000   9.029755397
  Li  Mg  H
  1  53  107
Direct configuration=     3
   0.997690489   0.997690488   0.999999998
   0.999868765   0.999868766   0.328607564
   0.999868765   0.999868765   0.671392434
   0.999737846   0.333574882   0.000000011
   0.999864411   0.333182133   0.333399384
   0.999864410   0.333182141   0.666600607
   0.999998245   0.666995524   0.000000017
   0.000008858   0.666781967   0.333303189
   0.000008861   0.666781973   0.666696783
   0.333574882   0.999737844   0.000000012
   0.333182134   0.999864413   0.333399386
   0.333182140   0.999864412   0.666600608
   0.333574402   0.333574403   0.000000013
   0.333177416   0.333177418   0.333220066
   0.333177416   0.333177422   0.666779936
   0.333244588   0.666758785   0.000000008
   0.333308399   0.666703821   0.333342986
   0.333308395   0.666703822   0.666657001
   0.666995519   0.999998246   0.000000015
   0.666781968   0.000008858   0.333303191
   0.666781972   0.000008859   0.666696786
   0.666758790   0.333244586   0.000000008
   0.666703823   0.333308394   0.333342987
   0.666703825   0.333308396   0.666657000
   0.666686401   0.666686404   0.000000027
   0.666742329   0.666742334   0.333279336
   0.666742328   0.666742335   0.666720640
   0.168287516   0.168287515   0.172355746
   0.166646387   0.166646384   0.500000023
   0.168287510   0.168287509   0.827644225
   0.166600241   0.500027590   0.166634352
   0.166636383   0.500019682   0.500000012
   0.166600239   0.500027585   0.833365630
   0.165093984   0.834941761   0.166236665
   0.166556932   0.833520248   0.500000020
   0.165093989   0.834941759   0.833763335
   0.500027587   0.166600240   0.166634357
   0.500019684   0.166636384   0.500000010
   0.500027586   0.166600238   0.833365624
   0.500023105   0.500023110   0.166674893
   0.500000938   0.500000937   0.500000013
   0.500023106   0.500023107   0.833325104
   0.499975443   0.833421138   0.166637966
   0.500012332   0.833361893   0.500000015
   0.499975443   0.833421135   0.833361999
   0.834941759   0.165093986   0.166236660
   0.833520250   0.166556933   0.500000021
   0.834941757   0.165093988   0.833763334
   0.833421141   0.499975443   0.166637970
   0.833361891   0.500012331   0.500000016
   0.833421135   0.499975439   0.833361999
   0.834902850   0.834902848   0.164517904
   0.833434092   0.833434091   0.500000015
   0.834902852   0.834902852   0.835482081
   0.101739302   0.101739302   0.333882573
   0.101739307   0.101739309   0.666117435
   0.101534704   0.434800571   0.000000009
   0.101506961   0.434842613   0.333316465
   0.101506961   0.434842611   0.666683525
   0.101795022   0.767841657   0.000000006
   0.101518875   0.767876938   0.333640256
   0.101518874   0.767876941   0.666359729
   0.434800571   0.101534705   0.000000009
   0.434842613   0.101506959   0.333316463
   0.434842612   0.101506960   0.666683524
   0.434846134   0.434846136   0.000000004
   0.434813086   0.434813087   0.333336320
   0.434813089   0.434813087   0.666663659
   0.434848328   0.768161275   0.000000014
   0.434847723   0.768168786   0.333329860
   0.434847726   0.768168789   0.666670143
   0.767841660   0.101795022   0.000000007
   0.767876938   0.101518875   0.333640259
   0.767876941   0.101518875   0.666359730
   0.768161275   0.434848329   0.000000015
   0.768168785   0.434847722   0.333329857
   0.768168789   0.434847727   0.666670145
   0.767288832   0.767288832   0.000000006
   0.768262889   0.768262890   0.333120671
   0.768262889   0.768262892   0.666879321
   0.229101220   0.229101220   0.000000014
   0.231963307   0.231963310   0.333244527
   0.231963305   0.231963307   0.666755457
   0.231830680   0.565163212   0.000000005
   0.231823022   0.565159608   0.333316224
   0.231823021   0.565159605   0.666683766
   0.231966306   0.898640587   0.000000005
   0.232112874   0.898417436   0.333678699
   0.232112873   0.898417436   0.666321287
   0.565163213   0.231830683   0.000000008
   0.565159609   0.231823021   0.333316224
   0.565159607   0.231823019   0.666683764
   0.565156893   0.565156894   0.000000008
   0.565169501   0.565169500   0.333329729
   0.565169502   0.565169502   0.666670268
   0.565169374   0.898479945   0.000000015
   0.565178203   0.898496780   0.333326654
   0.565178198   0.898496773   0.666673341
   0.898640586   0.231966306   0.000000010
   0.898417435   0.232112873   0.333678702
   0.898417434   0.232112871   0.666321282
   0.898479944   0.565169373   0.000000016
   0.898496778   0.565178202   0.333326649
   0.898496775   0.565178201   0.666673340
   0.896555554   0.896555557   0.000000009
   0.898204868   0.898204866   0.334196859
   0.898204865   0.898204865   0.665803136
   0.065373410   0.267349403   0.165637394
   0.065060731   0.268207424   0.500000007
   0.065373414   0.267349401   0.834362599
   0.065177367   0.601506662   0.166686968
   0.065169201   0.601514514   0.500000011
   0.065177366   0.601506661   0.833313024
   0.067033947   0.934486393   0.169200604
   0.064889773   0.935050227   0.500000010
   0.067033949   0.934486395   0.830799389
   0.398399580   0.268108168   0.166563938
   0.398568429   0.268192416   0.500000008
   0.398399577   0.268108171   0.833436054
   0.398489033   0.601516203   0.166654625
   0.398488972   0.601515994   0.500000010
   0.398489035   0.601516202   0.833345366
   0.398402305   0.934898132   0.166579222
   0.398514522   0.934825820   0.500000008
   0.398402304   0.934898132   0.833420766
   0.731961144   0.268036036   0.166660576
   0.731826563   0.268164816   0.500000009
   0.731961142   0.268036036   0.833339418
   0.731859698   0.601519076   0.166660381
   0.731829769   0.601495825   0.500000011
   0.731859701   0.601519072   0.833339607
   0.731369635   0.934942850   0.167027866
   0.731889000   0.934845562   0.500000011
   0.731369638   0.934942847   0.832972123
   0.267349403   0.065373410   0.165637393
   0.268207425   0.065060730   0.500000009
   0.267349399   0.065373414   0.834362598
   0.268108168   0.398399577   0.166563936
   0.268192416   0.398568428   0.500000011
   0.268108171   0.398399576   0.833436051
   0.268036035   0.731961143   0.166660579
   0.268164815   0.731826566   0.500000011
   0.268036037   0.731961143   0.833339418
   0.601506662   0.065177364   0.166686967
   0.601514513   0.065169201   0.500000011
   0.601506661   0.065177366   0.833313029
   0.601516204   0.398489032   0.166654625
   0.601515991   0.398488974   0.500000011
   0.601516202   0.398489033   0.833345368
   0.601519078   0.731859697   0.166660383
   0.601495824   0.731829767   0.500000014
   0.601519074   0.731859699   0.833339599
   0.934486392   0.067033951   0.169200603
   0.935050226   0.064889774   0.500000011
   0.934486396   0.067033947   0.830799389
   0.934898132   0.398402306   0.166579222
   0.934825821   0.398514521   0.500000009
   0.934898132   0.398402305   0.833420767
   0.934942851   0.731369636   0.167027864
   0.934845561   0.731889001   0.500000011
   0.934942849   0.731369637   0.832972120
H107LiMg53
   1.00000000
   13.503709127   0.000101249  -0.000000000
   0.000101249   13.503709131   0.000000000
  -0.000000000   0.000000000   9.029455528
  Li  Mg  H
  1  53  107
Direct configuration=     4
   0.994980132   0.994980129   0.999999993
   0.999837997   0.999838003   0.329249398
   0.999838003   0.999838002   0.670750620
   0.999666693   0.333752814   0.999999974
   0.999880855   0.333016989   0.332984853
   0.999880861   0.333016998   0.667015138
   0.999986378   0.666893073   0.999999992
   0.000026928   0.666729428   0.333576842
   0.000026934   0.666729438   0.666423206
   0.333752810   0.999666690   0.999999982
   0.333016983   0.999880855   0.332984861
   0.333016998   0.999880860   0.667015140
   0.332775883   0.332775885   0.999999998
   0.333408267   0.333408270   0.333092794
   0.333408271   0.333408274   0.666907209
   0.332997662   0.667053375   0.999999999
   0.333174133   0.666852353   0.333170413
   0.333174119   0.666852352   0.666829586
   0.666893069   0.999986384   0.999999975
   0.666729437   0.000026921   0.333576852
   0.666729429   0.000026932   0.666423210
   0.667053380   0.332997662   0.999999994
   0.666852353   0.333174127   0.333170422
   0.666852357   0.333174126   0.666829594
   0.666439971   0.666439962   0.999999950
   0.666966051   0.666966034   0.333277508
   0.666966041   0.666966047   0.666722553
   0.169417990   0.169417987   0.174163063
   0.166461822   0.166461816   0.499999986
   0.169417995   0.169417989   0.825836964
   0.166529827   0.500112127   0.166628377
   0.166602271   0.500125668   0.499999988
   0.166529826   0.500112119   0.833371632
   0.165611383   0.834610124   0.166696932
   0.166222205   0.833828036   0.499999996
   0.165611384   0.834610117   0.833303085
   0.500112117   0.166529828   0.166628348
   0.500125675   0.166602255   0.499999990
   0.500112125   0.166529823   0.833371653
   0.500082553   0.500082561   0.166727309
   0.499999594   0.499999583   0.499999981
   0.500082560   0.500082562   0.833272710
   0.499975748   0.833443237   0.166608616
   0.500066572   0.833355463   0.499999987
   0.499975733   0.833443252   0.833391404
   0.834610117   0.165611386   0.166696961
   0.833828040   0.166222200   0.499999986
   0.834610114   0.165611382   0.833303082
   0.833443255   0.499975733   0.166608602
   0.833355461   0.500066567   0.499999992
   0.833443250   0.499975727   0.833391405
   0.835013361   0.835013361   0.165679485
   0.833061046   0.833061046   0.499999999
   0.835013361   0.835013359   0.834320523
   0.101805729   0.101805730   0.334911549
   0.101805721   0.101805722   0.665088457
   0.101575574   0.434777897   0.999999995
   0.101444857   0.434718429   0.333248347
   0.101444849   0.434718423   0.666751666
   0.101947960   0.767873144   0.999999996
   0.101710728   0.767732595   0.333863467
   0.101710729   0.767732599   0.666136531
   0.434777900   0.101575579   0.999999998
   0.434718436   0.101444857   0.333248351
   0.434718425   0.101444854   0.666751651
   0.434955051   0.434955052   0.999999989
   0.434752400   0.434752400   0.333294568
   0.434752403   0.434752402   0.666705444
   0.434905168   0.768201609   0.000000004
   0.434908594   0.768213591   0.333317539
   0.434908588   0.768213595   0.666682447
   0.767873146   0.101947960   0.999999988
   0.767732595   0.101710728   0.333863465
   0.767732596   0.101710728   0.666136541
   0.768201614   0.434905167   0.999999999
   0.768213590   0.434908588   0.333317553
   0.768213598   0.434908590   0.666682452
   0.767027498   0.767027496   0.999999994
   0.768662039   0.768662038   0.332144411
   0.768662035   0.768662039   0.667855598
   0.227387843   0.227387844   0.999999989
   0.232916334   0.232916337   0.335719022
   0.232916338   0.232916337   0.664280987
   0.231815145   0.565090498   0.999999992
   0.231799106   0.565110669   0.333290792
   0.231799121   0.565110676   0.666709205
   0.231849567   0.898745926   1.000000000
   0.232366359   0.898176718   0.333999458
   0.232366361   0.898176723   0.666000543
   0.565090494   0.231815142   0.999999993
   0.565110675   0.231799112   0.333290800
   0.565110675   0.231799119   0.666709206
   0.565134498   0.565134502   0.999999996
   0.565191786   0.565191786   0.333325349
   0.565191776   0.565191779   0.666674648
   0.565204272   0.898543064   0.999999991
   0.565155756   0.898498035   0.333331952
   0.565155753   0.898498035   0.666668058
   0.898745925   0.231849564   0.999999999
   0.898176718   0.232366358   0.333999449
   0.898176722   0.232366358   0.666000540
   0.898543068   0.565204268   0.999999991
   0.898498032   0.565155754   0.333331960
   0.898498037   0.565155757   0.666668055
   0.896446399   0.896446402   0.999999996
   0.898334628   0.898334628   0.334078684
   0.898334629   0.898334631   0.665921313
   0.065107514   0.266838989   0.165207894
   0.065044112   0.268290842   0.500000001
   0.065107506   0.266838997   0.834792123
   0.065169595   0.601499947   0.166660478
   0.065116302   0.601522923   0.499999990
   0.065169586   0.601499947   0.833339500
   0.067034897   0.935759537   0.169989970
   0.064329381   0.935527687   0.500000008
   0.067034896   0.935759541   0.830010018
   0.398140284   0.267960576   0.166283969
   0.398506420   0.268214651   0.500000000
   0.398140285   0.267960565   0.833716019
   0.398489421   0.601509558   0.166623722
   0.398468465   0.601553834   0.500000001
   0.398489420   0.601509556   0.833376284
   0.398253566   0.935046021   0.166583186
   0.398568935   0.934822912   0.500000007
   0.398253562   0.935046025   0.833416826
   0.732609690   0.267401430   0.166684093
   0.731822754   0.268157225   0.499999993
   0.732609685   0.267401435   0.833315897
   0.731845352   0.601413946   0.166733737
   0.731792155   0.601485074   0.499999988
   0.731845344   0.601413958   0.833266282
   0.731235171   0.934912632   0.167150297
   0.731861597   0.934900334   0.499999986
   0.731235170   0.934912635   0.832849693
   0.266838990   0.065107514   0.165207884
   0.268290840   0.065044112   0.500000005
   0.266838997   0.065107508   0.834792119
   0.267960574   0.398140283   0.166283969
   0.268214647   0.398506424   0.499999992
   0.267960566   0.398140286   0.833716043
   0.267401431   0.732609688   0.166684094
   0.268157224   0.731822758   0.500000001
   0.267401435   0.732609686   0.833315896
   0.601499942   0.065169593   0.166660484
   0.601522923   0.065116302   0.499999990
   0.601499947   0.065169584   0.833339511
   0.601509557   0.398489418   0.166623726
   0.601553823   0.398468472   0.499999991
   0.601509556   0.398489415   0.833376288
   0.601413895   0.731845383   0.166733733
   0.601485073   0.731792152   0.499999991
   0.601413959   0.731845341   0.833266273
   0.935759539   0.067034899   0.169989968
   0.935527688   0.064329383   0.500000010
   0.935759541   0.067034897   0.830010018
   0.935046024   0.398253563   0.166583186
   0.934822915   0.398568936   0.500000002
   0.935046022   0.398253566   0.833416828
   0.934912631   0.731235174   0.167150296
   0.934900331   0.731861599   0.499999987
   0.934912635   0.731235167   0.832849689
H107LiMg53
   1.00000000
   13.503792912   0.000113453  -0.000000000
   0.000113453   13.503792916   0.000000000
  -0.000000000   0.000000000   9.029398181
  Li  Mg  H
  1  53  107
Direct configuration=     5
   0.994513260   0.994513257   0.999999993
   0.999838260   0.999838266   0.329179998
   0.999838266   0.999838266   0.670820021
   0.999646289   0.333775510   0.999999976
   0.999881072   0.332987653   0.332946436
   0.999881078   0.332987661   0.667053551
   0.999987705   0.666899325   0.999999994
   0.000030411   0.666724309   0.333597284
   0.000030418   0.666724319   0.666402759
   0.333775506   0.999646286   0.999999984
   0.332987647   0.999881073   0.332946444
   0.332987662   0.999881077   0.667053555
   0.332671725   0.332671727   0.000000001
   0.333458170   0.333458173   0.333081519
   0.333458174   0.333458176   0.666918486
   0.332953708   0.667102628   0.000000000
   0.333152860   0.666878153   0.333152739
   0.333152846   0.666878153   0.666847258
   0.666899321   0.999987710   0.999999977
   0.666724318   0.000030405   0.333597294
   0.666724310   0.000030416   0.666402765
   0.667102633   0.332953710   0.999999994
   0.666878148   0.333152853   0.333152751
   0.666878153   0.333152853   0.666847267
   0.666411613   0.666411604   0.999999951
   0.666997972   0.666997955   0.333266821
   0.666997964   0.666997969   0.666733240
   0.169619028   0.169619024   0.174641962
   0.166437850   0.166437844   0.499999981