Mg28Ni4O32
   1.00000000
   8.440343664   0.000000000   0.000000000
   0.000000000   8.440347610   0.000000000
   0.000000000   0.000000000   8.440345075
  Ni  Mg  O
  4  28  32
Direct configuration=     1
   0.000000000   0.000027120   0.000091495
   0.000000000   0.000027120   0.499908505
   0.000000000   0.249843213   0.250000000
   0.500000000   0.250100265   0.250000000
   0.000000000   0.499887833   0.000103341
   0.000000000   0.499887833   0.499896659
   0.500000000   0.000124564   0.000107274
   0.500000000   0.000124564   0.499892726
   0.500000000   0.499912263   0.000090844
   0.500000000   0.499912263   0.499909156
   0.000000000   0.249834001   0.750000000
   0.000000000   0.750178819   0.250000000
   0.000000000   0.750193072   0.750000000
   0.500000000   0.250006487   0.750000000
   0.500000000   0.749986460   0.250000000
   0.500000000   0.749997993   0.750000000
   0.249801863   0.000232360   0.250000000
   0.249842005   0.999983307   0.750000000
   0.250050394   0.499783611   0.250000000
   0.249988264   0.500020485   0.750000000
   0.750198137   0.000232360   0.250000000
   0.750157995   0.999983307   0.750000000
   0.749949606   0.499783611   0.250000000
   0.750011736   0.500020485   0.750000000
   0.249920912   0.249907590   0.000214676
   0.249920912   0.249907590   0.499785324
   0.249922129   0.750089377   0.999968151
   0.249922129   0.750089377   0.500031849
   0.750079088   0.249907590   0.000214676
   0.750079088   0.249907590   0.499785324
   0.750077871   0.750089377   0.999968151
   0.750077871   0.750089377   0.500031849
   0.249877072   0.249962899   0.250000000
   0.249986137   0.249982028   0.750000000
   0.249989778   0.749978344   0.250000000
   0.249962428   0.750011621   0.750000000
   0.750122928   0.249962899   0.250000000
   0.750013863   0.249982028   0.750000000
   0.750010222   0.749978344   0.250000000
   0.750037572   0.750011621   0.750000000
   0.250119329   0.000009265   0.999996601
   0.250119329   0.000009265   0.500003399
   0.249935639   0.500012654   0.000011066
   0.249935639   0.500012654   0.499988934
   0.749880671   0.000009265   0.999996601
   0.749880671   0.000009265   0.500003399
   0.750064361   0.500012654   0.000011066
   0.750064361   0.500012654   0.499988934
   0.000000000   0.250071608   0.999950031
   0.000000000   0.250071608   0.500049969
   0.000000000   0.749874759   0.000045586
   0.000000000   0.749874759   0.499954414
   0.500000000   0.249919769   0.999806440
   0.500000000   0.249919769   0.500193560
   0.500000000   0.750051927   0.000059787
   0.500000000   0.750051927   0.499940213
   0.000000000   0.000030120   0.250000000
   0.000000000   0.000051708   0.750000000
   0.000000000   0.500109480   0.250000000
   0.000000000   0.499961774   0.750000000
   0.500000000   0.999788106   0.250000000
   0.500000000   0.000050355   0.750000000
   0.500000000   0.500191578   0.250000000
   0.500000000   0.499952029   0.750000000
Mg28Ni4O32
   1.00000000
   8.442422109   0.000000000  -0.000000000
   0.000000000   8.442450065   0.000000000
  -0.000000000   0.000000000   8.442432667
  Ni  Mg  O
  4  28  32
Direct configuration=     2
   0.000000000   0.000153074   0.000576868
   0.000000000   0.000153074   0.499423132
   0.000000000   0.249086196   0.250000000
   0.500000000   0.250582876   0.250000000
   0.000000000   0.499310126   0.000653260
   0.000000000   0.499310126   0.499346740
   0.500000000   0.000759851   0.000669854
   0.500000000   0.000759851   0.499330146
   0.500000000   0.499476212   0.000532320
   0.500000000   0.499476212   0.499467680
   0.000000000   0.249017341   0.750000000
   0.000000000   0.751034908   0.250000000
   0.000000000   0.751133217   0.750000000
   0.500000000   0.249994622   0.750000000
   0.500000000   0.749984301   0.250000000
   0.500000000   0.750042862   0.750000000
   0.248802425   0.001375283   0.250000000
   0.249086891   0.999958241   0.750000000
   0.250249597   0.498731980   0.250000000
   0.249870985   0.500069039   0.750000000
   0.751197575   0.001375283   0.250000000
   0.750913109   0.999958241   0.750000000
   0.749750403   0.498731980   0.250000000
   0.750129015   0.500069039   0.750000000
   0.249493052   0.249425630   0.001265174
   0.249493052   0.249425630   0.498734826
   0.249529718   0.750548223   0.999865260
   0.249529718   0.750548223   0.500134740
   0.750506948   0.249425630   0.001265174
   0.750506948   0.249425630   0.498734826
   0.750470282   0.750548223   0.999865260
   0.750470282   0.750548223   0.500134740
   0.249238980   0.249745741   0.250000000
   0.249861011   0.249857675   0.750000000
   0.249878360   0.749911496   0.250000000
   0.249728582   0.750113160   0.750000000
   0.750761020   0.249745741   0.250000000
   0.750138989   0.249857675   0.750000000
   0.750121640   0.749911496   0.250000000
   0.750271418   0.750113160   0.750000000
   0.250673393   0.000091847   0.000017041
   0.250673393   0.000091847   0.499982959
   0.249632657   0.500026266   0.000108405
   0.249632657   0.500026266   0.499891595
   0.749326607   0.000091847   0.000017041
   0.749326607   0.000091847   0.499982959
   0.750367343   0.500026266   0.000108405
   0.750367343   0.500026266   0.499891595
   0.000000000   0.250366904   0.999744733
   0.000000000   0.250366904   0.500255267
   0.000000000   0.749309135   0.000265972
   0.000000000   0.749309135   0.499734028
   0.500000000   0.249535262   0.998903557
   0.500000000   0.249535262   0.501096443
   0.500000000   0.750295375   0.000325555
   0.500000000   0.750295375   0.499674445
   0.000000000   0.000239854   0.250000000
   0.000000000   0.000299659   0.750000000
   0.000000000   0.500599680   0.250000000
   0.000000000   0.499776237   0.750000000
   0.500000000   0.998802718   0.250000000
   0.500000000   0.000272332   0.750000000
   0.500000000   0.501086019   0.250000000
   0.500000000   0.499742204   0.750000000
Mg28Ni4O32
   1.00000000
   8.443041307   0.000000000  -0.000000000
   0.000000000   8.443077267   0.000000000
  -0.000000000   0.000000000   8.443055331
  Ni  Mg  O
  4  28  32
Direct configuration=     3
   0.000000000   0.000158894   0.000656897
   0.000000000   0.000158894   0.499343103
   0.000000000   0.249021139   0.250000000
   0.500000000   0.250626719   0.250000000
   0.000000000   0.499229010   0.000747429
   0.000000000   0.499229010   0.499252571
   0.500000000   0.000844995   0.000761127
   0.500000000   0.000844995   0.499238873
   0.500000000   0.499426481   0.000570950
   0.500000000   0.499426481   0.499429050
   0.000000000   0.248932729   0.750000000
   0.000000000   0.751100152   0.250000000
   0.000000000   0.751222140   0.750000000
   0.500000000   0.249955095   0.750000000
   0.500000000   0.750042327   0.250000000
   0.500000000   0.750096928   0.750000000
   0.248678294   0.001491017   0.250000000
   0.249029163   0.000006286   0.750000000
   0.250227916   0.498635970   0.250000000
   0.249805075   0.500028388   0.750000000
   0.751321706   0.001491017   0.250000000
   0.750970837   0.000006286   0.750000000
   0.749772084   0.498635970   0.250000000
   0.750194925   0.500028388   0.750000000
   0.249414347   0.249351302   0.001366720
   0.249414347   0.249351302   0.498633280
   0.249481199   0.750612254   0.999901673
   0.249481199   0.750612254   0.500098327
   0.750585653   0.249351302   0.001366720
   0.750585653   0.249351302   0.498633280
   0.750518801   0.750612254   0.999901673
   0.750518801   0.750612254   0.500098327
   0.249143458   0.249693738   0.250000000
   0.249795553   0.249811713   0.750000000
   0.249810074   0.749942369   0.250000000
   0.249659372   0.750164030   0.750000000
   0.750856542   0.249693738   0.250000000
   0.750204447   0.249811713   0.750000000
   0.750189926   0.749942369   0.250000000
   0.750340628   0.750164030   0.750000000
   0.250699128   0.000134138   0.000055027
   0.250699128   0.000134138   0.499944973
   0.249611200   0.499981899   0.000158371
   0.249611200   0.499981899   0.499841629
   0.749300872   0.000134138   0.000055027
   0.749300872   0.000134138   0.499944973
   0.750388800   0.499981899   0.000158371
   0.750388800   0.499981899   0.499841629
   0.000000000   0.250343056   0.999760854
   0.000000000   0.250343056   0.500239146
   0.000000000   0.749296832   0.000288517
   0.000000000   0.749296832   0.499711483
   0.500000000   0.249506053   0.998856356
   0.500000000   0.249506053   0.501143644
   0.500000000   0.750312080   0.000329916
   0.500000000   0.750312080   0.499670084
   0.000000000   0.000315913   0.250000000
   0.000000000   0.000319737   0.750000000
   0.000000000   0.500606878   0.250000000
   0.000000000   0.499755016   0.750000000
   0.500000000   0.998753917   0.250000000
   0.500000000   0.000274646   0.750000000
   0.500000000   0.501134552   0.250000000
   0.500000000   0.499741916   0.750000000
Mg28Ni4O32
   1.00000000
   8.449689106  -0.000000000   0.000000000
  -0.000000000   8.449812861   0.000000000
   0.000000000   0.000000000   8.449741908
  Ni  Mg  O
  4  28  32
Direct configuration=     4
   0.000000000   0.000148181   0.001322194
   0.000000000   0.000148181   0.498677806
   0.000000000   0.248683553   0.250000000
   0.500000000   0.250881353   0.250000000
   0.000000000   0.498595904   0.001553261
   0.000000000   0.498595904   0.498446739
   0.500000000   0.001497864   0.001535504
   0.500000000   0.001497864   0.498464496
   0.500000000   0.499085007   0.000763806
   0.500000000   0.499085007   0.499236194
   0.000000000   0.248379060   0.750000000
   0.000000000   0.751381940   0.250000000
   0.000000000   0.751743457   0.750000000
   0.500000000   0.249500109   0.750000000
   0.500000000   0.750736577   0.250000000
   0.500000000   0.750717333   0.750000000
   0.247772481   0.002211374   0.250000000
   0.248772361   0.000585340   0.750000000
   0.249864367   0.498098337   0.250000000
   0.249084005   0.499523878   0.750000000
   0.752227519   0.002211374   0.250000000
   0.751227639   0.000585340   0.750000000
   0.750135633   0.498098337   0.250000000
   0.750915995   0.499523878   0.750000000
   0.248719666   0.248741568   0.001968811
   0.248719666   0.248741568   0.498031189
   0.249129974   0.751109314   0.000384237
   0.249129974   0.751109314   0.499615763
   0.751280334   0.248741568   0.001968811
   0.751280334   0.248741568   0.498031189
   0.750870026   0.751109314   0.000384237
   0.750870026   0.751109314   0.499615763
   0.248373301   0.249201264   0.250000000
   0.249080735   0.249329938   0.750000000
   0.249050345   0.750365694   0.250000000
   0.248961991   0.750715028   0.750000000
   0.751626699   0.249201264   0.250000000
   0.750919265   0.249329938   0.750000000
   0.750949655   0.750365694   0.250000000
   0.751038009   0.750715028   0.750000000
   0.250678490   0.000594466   0.000512476
   0.250678490   0.000594466   0.499487524
   0.249509008   0.499432534   0.000706792
   0.249509008   0.499432534   0.499293208
   0.749321510   0.000594466   0.000512476
   0.749321510   0.000594466   0.499487524
   0.750490992   0.499432534   0.000706792
   0.750490992   0.499432534   0.499293208
   0.000000000   0.249872201   0.000078120
   0.000000000   0.249872201   0.499921880
   0.000000000   0.749480913   0.000456810
   0.000000000   0.749480913   0.499543190
   0.500000000   0.249374984   0.998828330
   0.500000000   0.249374984   0.501171670
   0.500000000   0.750388717   0.000252174
   0.500000000   0.750388717   0.499747826
   0.000000000   0.001099548   0.250000000
   0.000000000   0.000426322   0.750000000
   0.000000000   0.500404433   0.250000000
   0.000000000   0.499584310   0.750000000
   0.500000000   0.998762541   0.250000000
   0.500000000   0.000200286   0.750000000
   0.500000000   0.501196686   0.250000000
   0.500000000   0.499841713   0.750000000
Mg28Ni4O32
   1.00000000
   8.453912053  -0.000000000   0.000000000
  -0.000000000   8.454092640   0.000000000
   0.000000000   0.000000000   8.453989999
  Ni  Mg  O
  4  28  32
Direct configuration=     5
   0.000000000   0.000091716   0.001562693
   0.000000000   0.000091716   0.498437307
   0.000000000   0.248706159   0.250000000
   0.500000000   0.250909772   0.250000000
   0.000000000   0.498385037   0.001873759
   0.000000000   0.498385037   0.498126241
   0.500000000   0.001710953   0.001851396
   0.500000000   0.001710953   0.498148604
   0.500000000   0.499007747   0.000729902
   0.500000000   0.499007747   0.499270098
   0.000000000   0.248257690   0.750000000
   0.000000000   0.751298451   0.250000000
   0.000000000   0.751787689   0.750000000
   0.500000000   0.249248244   0.750000000
   0.500000000   0.751152290   0.250000000
   0.500000000   0.751077669   0.750000000
   0.247518586   0.002306463   0.250000000
   0.248830792   0.000920949   0.750000000
   0.249607491   0.498082719   0.250000000
   0.248682827   0.499219962   0.750000000
   0.752481414   0.002306463   0.250000000
   0.751169208   0.000920949   0.750000000
   0.750392509   0.498082719   0.250000000
   0.751317173   0.499219962   0.750000000
   0.248424713   0.248517837   0.002018754
   0.248424713   0.248517837   0.497981246
   0.249035438   0.751271259   0.000683929
   0.249035438   0.751271259   0.499316071
   0.751575287   0.248517837   0.002018754
   0.751575287   0.248517837   0.497981246
   0.750964562   0.751271259   0.000683929
   0.750964562   0.751271259   0.499316071
   0.248102863   0.248978846   0.250000000
   0.248683091   0.249072982   0.750000000
   0.248617267   0.750665225   0.250000000
   0.248605445   0.751018923   0.750000000
   0.751897137   0.248978846   0.250000000
   0.751316909   0.249072982   0.750000000
   0.751382733   0.750665225   0.250000000
   0.751394555   0.751018923   0.750000000
   0.250492984   0.000846836   0.000804253
   0.250492984   0.000846836   0.499195747
   0.249500064   0.499080920   0.001017340
   0.249500064   0.499080920   0.498982660
   0.749507016   0.000846836   0.000804253
   0.749507016   0.000846836   0.499195747
   0.750499936   0.499080920   0.001017340
   0.750499936   0.499080920   0.498982660
   0.000000000   0.249479742   0.000336811
   0.000000000   0.249479742   0.499663189
   0.000000000   0.749762121   0.000536419
   0.000000000   0.749762121   0.499463581
   0.500000000   0.249401488   0.999097099
   0.500000000   0.249401488   0.500902901
   0.500000000   0.750393630   0.000168672
   0.500000000   0.750393630   0.499831328
   0.000000000   0.001498952   0.250000000
   0.000000000   0.000433113   0.750000000
   0.000000000   0.500131571   0.250000000
   0.000000000   0.499495838   0.750000000
   0.500000000   0.999093573   0.250000000
   0.500000000   0.000137540   0.750000000
   0.500000000   0.500974169   0.250000000
   0.500000000   0.499932872   0.750000000
Mg28Ni4O32
   1.00000000
   8.458879716  -0.000000000   0.000000000
  -0.000000000   8.459127495   0.000000000
   0.000000000   0.000000000   8.458986661
  Ni  Mg  O
  4  28  32
Direct configuration=     6
   0.000000000   0.999991930   0.001638610
   0.000000000   0.999991930   0.498361390
   0.000000000   0.248888456   0.250000000
   0.500000000   0.250864783   0.250000000
   0.000000000   0.498320755   0.002029942
   0.000000000   0.498320755   0.497970058
   0.500000000   0.001778461   0.002035493
   0.500000000   0.001778461   0.497964507
   0.500000000   0.499032103   0.000572444
   0.500000000   0.499032103   0.499427556
   0.000000000   0.248269195   0.750000000
   0.000000000   0.751043702   0.250000000
   0.000000000   0.751639556   0.750000000
   0.500000000   0.249066377   0.750000000
   0.500000000   0.751511130   0.250000000
   0.500000000   0.751383136   0.750000000
   0.247503235   0.002145580   0.250000000
   0.249023682   0.001177774   0.750000000
   0.249382223   0.498289408   0.250000000
   0.248354694   0.498968001   0.750000000
   0.752496765   0.002145580   0.250000000
   0.750976318   0.001177774   0.750000000
   0.750617777   0.498289408   0.250000000
   0.751645306   0.498968001   0.750000000
   0.248254212   0.248429044   0.001835614
   0.248254212   0.248429044   0.498164386
   0.249037727   0.751311414   0.000928949
   0.249037727   0.751311414   0.499071051
   0.751745788   0.248429044   0.001835614
   0.751745788   0.248429044   0.498164386
   0.750962273   0.751311414   0.000928949
   0.750962273   0.751311414   0.499071051
   0.248015853   0.248853206   0.250000000
   0.248361172   0.248873061   0.750000000
   0.248255708   0.750981940   0.250000000
   0.248339986   0.751262751   0.750000000
   0.751984147   0.248853206   0.250000000
   0.751638828   0.248873061   0.750000000
   0.751744292   0.750981940   0.250000000
   0.751660014   0.751262751   0.750000000
   0.250197564   0.001042672   0.001089530
   0.250197564   0.001042672   0.498910470
   0.249488767   0.498746011   0.001277391
   0.249488767   0.498746011   0.498722609
   0.749802436   0.001042672   0.001089530
   0.749802436   0.001042672   0.498910470
   0.750511233   0.498746011   0.001277391
   0.750511233   0.498746011   0.498722609
   0.000000000   0.249035836   0.000616724
   0.000000000   0.249035836   0.499383276
   0.000000000   0.750130453   0.000634791
   0.000000000   0.750130453   0.499365209
   0.500000000   0.249492520   0.999557034
   0.500000000   0.249492520   0.500442966
   0.500000000   0.750401972   0.000115475
   0.500000000   0.750401972   0.499884525
   0.000000000   0.001781545   0.250000000
   0.000000000   0.000411214   0.750000000
   0.000000000   0.499778673   0.250000000
   0.000000000   0.499386549   0.750000000
   0.500000000   0.999658043   0.250000000
   0.500000000   0.000125747   0.750000000
   0.500000000   0.500600912   0.250000000
   0.500000000   0.500002911   0.750000000
Mg28Ni4O32
   1.00000000
   8.464208619  -0.000000000   0.000000000
  -0.000000000   8.464527985  -0.000000000
   0.000000000  -0.000000000   8.464345178
  Ni  Mg  O
  4  28  32
Direct configuration=     7
   0.000000000   0.999882378   0.001546191
   0.000000000   0.999882378   0.498453809
   0.000000000   0.249103899   0.250000000
   0.500000000   0.250816858   0.250000000
   0.000000000   0.498378246   0.002002740
   0.000000000   0.498378246   0.497997260
   0.500000000   0.001736898   0.002078864
   0.500000000   0.001736898   0.497921136
   0.500000000   0.499115569   0.000366703
   0.500000000   0.499115569   0.499633297
   0.000000000   0.248318145   0.750000000
   0.000000000   0.750771933   0.250000000
   0.000000000   0.751423952   0.750000000
   0.500000000   0.249036144   0.750000000
   0.500000000   0.751687438   0.250000000
   0.500000000   0.751532850   0.750000000
   0.247654879   0.001873936   0.250000000
   0.249218997   0.001242016   0.750000000
   0.249306386   0.498569294   0.250000000
   0.248203447   0.498868928   0.750000000
   0.752345121   0.001873936   0.250000000
   0.750781003   0.001242016   0.750000000
   0.750693614   0.498569294   0.250000000
   0.751796553   0.498868928   0.750000000
   0.248236422   0.248472639   0.001561770
   0.248236422   0.248472639   0.498438230
   0.249106400   0.751246224   0.001009577
   0.249106400   0.751246224   0.498990423
   0.751763578   0.248472639   0.001561770
   0.751763578   0.248472639   0.498438230
   0.750893600   0.751246224   0.001009577
   0.750893600   0.751246224   0.498990423
   0.248106113   0.248867503   0.250000000
   0.248226144   0.248793481   0.750000000
   0.248092931   0.751210954   0.250000000
   0.248247975   0.751361072   0.750000000
   0.751893887   0.248867503   0.250000000
   0.751773856   0.248793481   0.750000000
   0.751907069   0.751210954   0.250000000
   0.751752025   0.751361072   0.750000000
   0.249931294   0.001109246   0.001277117
   0.249931294   0.001109246   0.498722883
   0.249424656   0.498544548   0.001397051
   0.249424656   0.498544548   0.498602949
   0.750068706   0.001109246   0.001277117
   0.750068706   0.001109246   0.498722883
   0.750575344   0.498544548   0.001397051
   0.750575344   0.498544548   0.498602949
   0.000000000   0.248698913   0.000806377
   0.000000000   0.248698913   0.499193623
   0.000000000   0.750408996   0.000762966
   0.000000000   0.750408996   0.499237034
   0.500000000   0.249584253   0.999991832
   0.500000000   0.249584253   0.500008168
   0.500000000   0.750454764   0.000164772
   0.500000000   0.750454764   0.499835228
   0.000000000   0.001852633   0.250000000
   0.000000000   0.000390421   0.750000000
   0.000000000   0.499502386   0.250000000
   0.000000000   0.499250890   0.750000000
   0.500000000   0.000217903   0.250000000
   0.500000000   0.000230379   0.750000000
   0.500000000   0.500288255   0.250000000
   0.500000000   0.499990886   0.750000000
Mg28Ni4O32
   1.00000000
   8.473964468  -0.000000000   0.000000000
  -0.000000000   8.474413765  -0.000000000
   0.000000000  -0.000000000   8.474152968
  Ni  Mg  O
  4  28  32
Direct configuration=     8
   0.000000000   0.999717457   0.001251377
   0.000000000   0.999717457   0.498748623
   0.000000000   0.249373214   0.250000000
   0.500000000   0.250806222   0.250000000
   0.000000000   0.498547209   0.001790655
   0.000000000   0.498547209   0.498209345
   0.500000000   0.001619708   0.002034674
   0.500000000   0.001619708   0.497965326
   0.500000000   0.499264558   0.000049509
   0.500000000   0.499264558   0.499950491
   0.000000000   0.248336072   0.750000000
   0.000000000   0.750439562   0.250000000
   0.000000000   0.751114126   0.750000000
   0.500000000   0.249185512   0.750000000
   0.500000000   0.751726350   0.250000000
   0.500000000   0.751575545   0.750000000
   0.247981619   0.001459249   0.250000000
   0.249433173   0.001089511   0.750000000
   0.249412566   0.498970816   0.250000000
   0.248180814   0.498915058   0.750000000
   0.752018381   0.001459249   0.250000000
   0.750566827   0.001089511   0.750000000
   0.750587434   0.498970816   0.250000000
   0.751819186   0.498915058   0.750000000
   0.248357224   0.248650711   0.001155176
   0.248357224   0.248650711   0.498844824
   0.249247236   0.751062984   0.000915642
   0.249247236   0.751062984   0.499084358
   0.751642776   0.248650711   0.001155176
   0.751642776   0.248650711   0.498844824
   0.750752764   0.751062984   0.000915642
   0.750752764   0.751062984   0.499084358
   0.248401493   0.249053724   0.250000000
   0.248258534   0.248814394   0.750000000
   0.248107932   0.751425893   0.250000000
   0.248316253   0.751322338   0.750000000
   0.751598507   0.249053724   0.250000000
   0.751741466   0.248814394   0.750000000
   0.751892068   0.751425893   0.250000000
   0.751683747   0.751322338   0.750000000
   0.249630015   0.001043496   0.001424274
   0.249630015   0.001043496   0.498575726
   0.249224800   0.498427784   0.001392608
   0.249224800   0.498427784   0.498607392
   0.750369985   0.001043496   0.001424274
   0.750369985   0.001043496   0.498575726
   0.750775200   0.498427784   0.001392608
   0.750775200   0.498427784   0.498607392
   0.000000000   0.248351232   0.000951067
   0.000000000   0.248351232   0.499048933
   0.000000000   0.750639048   0.001009050
   0.000000000   0.750639048   0.498990950
   0.500000000   0.249689095   0.000509093
   0.500000000   0.249689095   0.499490907
   0.500000000   0.750620140   0.000396770
   0.500000000   0.750620140   0.499603230
   0.000000000   0.001712326   0.250000000
   0.000000000   0.000371097   0.750000000
   0.000000000   0.499237649   0.250000000
   0.000000000   0.498993809   0.750000000
   0.500000000   0.000955463   0.250000000
   0.500000000   0.000567254   0.750000000
   0.500000000   0.500014536   0.250000000
   0.500000000   0.499852503   0.750000000
Mg28Ni4O32
   1.00000000
   8.486028338  -0.000000000   0.000000000
  -0.000000000   8.486637232  -0.000000000
   0.000000000  -0.000000000   8.486278737
  Ni  Mg  O
  4  28  32
Direct configuration=     9
   0.000000000   0.999581206   0.000843197
   0.000000000   0.999581206   0.499156803
   0.000000000   0.249486715   0.250000000
   0.500000000   0.250908157   0.250000000
   0.000000000   0.498753773   0.001429656
   0.000000000   0.498753773   0.498570344
   0.500000000   0.001498474   0.001894511
   0.500000000   0.001498474   0.498105489
   0.500000000   0.499397980   0.999800005
   0.500000000   0.499397980   0.500199995
   0.000000000   0.248236549   0.750000000
   0.000000000   0.750292158   0.250000000
   0.000000000   0.750900986   0.750000000
   0.500000000   0.249549375   0.750000000
   0.500000000   0.751490452   0.250000000
   0.500000000   0.751407472   0.750000000
   0.248332901   0.001157548   0.250000000
   0.249491020   0.000658848   0.750000000
   0.249784573   0.499248466   0.250000000
   0.248396122   0.499185025   0.750000000
   0.751667099   0.001157548   0.250000000
   0.750508980   0.000658848   0.750000000
   0.750215427   0.499248466   0.250000000
   0.751603878   0.499185025   0.750000000
   0.248622528   0.248915022   0.000867610
   0.248622528   0.248915022   0.499132390
   0.249391242   0.750820763   0.000581915
   0.249391242   0.750820763   0.499418085
   0.751377472   0.248915022   0.000867610
   0.751377472   0.248915022   0.499132390
   0.750608758   0.750820763   0.000581915
   0.750608758   0.750820763   0.499418085
   0.248824911   0.249419386   0.250000000
   0.248584046   0.248998347   0.750000000
   0.248461534   0.751428143   0.250000000
   0.248633271   0.751048008   0.750000000
   0.751175089   0.249419386   0.250000000
   0.751415954   0.248998347   0.750000000
   0.751538466   0.751428143   0.250000000
   0.751366729   0.751048008   0.750000000
   0.249521486   0.000775043   0.001362646
   0.249521486   0.000775043   0.498637354
   0.248922450   0.498580140   0.001143738
   0.248922450   0.498580140   0.498856262
   0.750478514   0.000775043   0.001362646
   0.750478514   0.000775043   0.498637354
   0.751077550   0.498580140   0.001143738
   0.751077550   0.498580140   0.498856262
   0.000000000   0.248251084   0.000887873
   0.000000000   0.248251084   0.499112127
   0.000000000   0.750562207   0.001268438
   0.000000000   0.750562207   0.498731562
   0.500000000   0.249738768   0.000732356
   0.500000000   0.249738768   0.499267644
   0.500000000   0.750872400   0.000783686
   0.500000000   0.750872400   0.499216314
   0.000000000   0.001298311   0.250000000
   0.000000000   0.000349219   0.750000000
   0.000000000   0.499215756   0.250000000
   0.000000000   0.498712044   0.750000000
   0.500000000   0.001422706   0.250000000
   0.500000000   0.001078871   0.750000000
   0.500000000   0.500090528   0.250000000
   0.500000000   0.499597509   0.750000000
Mg28Ni4O32
   1.00000000
   8.495231228  -0.000000000   0.000000000
  -0.000000000   8.495961328  -0.000000000
   0.000000000  -0.000000000   8.495526681
  Ni  Mg  O
  4  28  32
Direct configuration=     10
   0.000000000   0.999561275   0.000556892
   0.000000000   0.999561275   0.499443108
   0.000000000   0.249339638   0.250000000
   0.500000000   0.251088704   0.250000000
   0.000000000   0.498874865   0.001104351
   0.000000000   0.498874865   0.498895649
   0.500000000   0.001450066   0.001711222
   0.500000000   0.001450066   0.498288778
   0.500000000   0.499440005   0.999794743
   0.500000000   0.499440005   0.500205257
   0.000000000   0.248067534   0.750000000
   0.000000000   0.750451134   0.250000000
   0.000000000   0.750906815   0.750000000
   0.500000000   0.249945431   0.750000000
   0.500000000   0.751069771   0.250000000
   0.500000000   0.751098802   0.750000000
   0.248514293   0.001165507   0.250000000
   0.249347477   0.000162334   0.750000000
   0.250244446   0.499229625   0.250000000
   0.248764268   0.499548433   0.750000000
   0.751485707   0.001165507   0.250000000
   0.750652523   0.000162334   0.750000000
   0.749755554   0.499229625   0.250000000
   0.751235732   0.499548433   0.750000000
   0.248911829   0.249129516   0.000890300
   0.248911829   0.249129516   0.499109700
   0.249454462   0.750644242   0.000181918
   0.249454462   0.750644242   0.499818082
   0.751088171   0.249129516   0.000890300
   0.751088171   0.249129516   0.499109700
   0.750545538   0.750644242   0.000181918
   0.750545538   0.750644242   0.499818082
   0.249160579   0.249799211   0.250000000
   0.249088253   0.249271042   0.750000000
   0.249047247   0.751141699   0.250000000
   0.249083878   0.750633478   0.750000000
   0.750839421   0.249799211   0.250000000
   0.750911747   0.249271042   0.750000000
   0.750952753   0.751141699   0.250000000
   0.750916122   0.750633478   0.750000000
   0.249711660   0.000408382   0.001050906
   0.249711660   0.000408382   0.498949094
   0.248709657   0.498997625   0.000719473
   0.248709657   0.498997625   0.499280527
   0.750288340   0.000408382   0.001050906
   0.750288340   0.000408382   0.498949094
   0.751290343   0.498997625   0.000719473
   0.751290343   0.498997625   0.499280527
   0.000000000   0.248504439   0.000603560
   0.000000000   0.248504439   0.499396440
   0.000000000   0.750147796   0.001337434
   0.000000000   0.750147796   0.498662566
   0.500000000   0.249722259   0.000457707
   0.500000000   0.249722259   0.499542293
   0.500000000   0.751056627   0.001084931
   0.500000000   0.751056627   0.498915069
   0.000000000   0.000797824   0.250000000
   0.000000000   0.000291119   0.750000000
   0.000000000   0.499493095   0.250000000
   0.000000000   0.498599482   0.750000000
   0.500000000   0.001293569   0.250000000
   0.500000000   0.001464283   0.750000000
   0.500000000   0.500563420   0.250000000
   0.500000000   0.499392997   0.750000000
Mg28Ni4O32
   1.00000000
   8.498006400  -0.000000000   0.000000000
  -0.000000000   8.498773473  -0.000000000
   0.000000000  -0.000000000   8.498313536
  Ni  Mg  O
  4  28  32
Direct configuration=     11
   0.000000000   0.999635839   0.000541815
   0.000000000   0.999635839   0.499458185
   0.000000000   0.249115082   0.250000000
   0.500000000   0.251198747   0.250000000