Mg28Ni4O32
   1.00000000
   8.440333378   0.000000000  -0.000000000
   0.000000000   8.440333378   0.000000000
  -0.000000000   0.000000000   8.440333378
  Ni  Mg  O
  4  28  32
Direct configuration=     1
   0.000000000   0.000000000   0.000000000
   0.500000000   0.250000000   0.250000000
   0.250000000   0.500000000   0.750000000
   0.750000000   0.750000000   0.500000000
   0.999884843   0.999884843   0.500000000
   0.000115157   0.500000000   0.999884843
   0.000000000   0.500083003   0.500083003
   0.500000000   0.000115157   0.000115157
   0.500083003   0.000000000   0.499916997
   0.499916997   0.499916997   0.000000000
   0.500000000   0.500000000   0.500000000
   0.000000000   0.249884843   0.249884843
   0.000083003   0.250000000   0.750083003
   0.999916997   0.750083003   0.250000000
   0.000000000   0.750000000   0.750000000
   0.499884843   0.250115157   0.750000000
   0.500115157   0.750000000   0.250115157
   0.500000000   0.749916997   0.749916997
   0.250000000   0.000083003   0.249916997
   0.249884843   0.000000000   0.750115157
   0.250115157   0.499884843   0.250000000
   0.750000000   0.000000000   0.250000000
   0.750083003   0.999916997   0.750000000
   0.749916997   0.500000000   0.250083003
   0.750000000   0.500115157   0.749884843
   0.250000000   0.250000000   0.000000000
   0.250083003   0.250083003   0.500000000
   0.249916997   0.750000000   0.999916997
   0.250000000   0.749884843   0.500115157
   0.750000000   0.249916997   0.000083003
   0.749884843   0.250000000   0.499884843
   0.750115157   0.750115157   0.000000000
   0.249743037   0.250063778   0.250015935
   0.250063778   0.249743037   0.749984065
   0.250039158   0.749960842   0.250039158
   0.250015935   0.750256963   0.749936222
   0.750256963   0.250015935   0.250063778
   0.749960842   0.250039158   0.749960842
   0.749936222   0.749984065   0.249743037
   0.749984065   0.749936222   0.750256963
   0.250256963   0.999984065   0.999936222
   0.249960842   0.999960842   0.500039158
   0.249936222   0.500015935   0.000256963
   0.249984065   0.500063778   0.499743037
   0.749743037   0.999936222   0.999984065
   0.750063778   0.000256963   0.500015935
   0.750039158   0.500039158   0.999960842
   0.750015935   0.499743037   0.500063778
   0.999984065   0.250256963   0.000063778
   0.999960842   0.249960842   0.499960842
   0.999936222   0.749743037   0.000015935
   0.000256963   0.750063778   0.499984065
   0.500015935   0.249936222   0.999743037
   0.500063778   0.249984065   0.500256963
   0.500039158   0.750039158   0.000039158
   0.499743037   0.750015935   0.499936222
   0.000015935   0.000063778   0.250256963
   0.000063778   0.000015935   0.749743037
   0.000039158   0.499960842   0.249960842
   0.999743037   0.499984065   0.750063778
   0.499984065   0.999743037   0.249936222
   0.499960842   0.000039158   0.750039158
   0.499936222   0.500256963   0.249984065
   0.500256963   0.499936222   0.750015935
Mg28Ni4O32
   1.00000000
   8.441944673   0.000000000   0.000000000
   0.000000000   8.441944673  -0.000000000
   0.000000000  -0.000000000   8.441944673
  Ni  Mg  O
  4  28  32
Direct configuration=     2
   0.000000000   0.000000000   0.000000000
   0.500000000   0.250000000   0.250000000
   0.250000000   0.500000000   0.750000000
   0.750000000   0.750000000   0.500000000
   0.999457444   0.999457444   0.500000000
   0.000542556   0.500000000   0.999457444
   0.000000000   0.500367501   0.500367501
   0.500000000   0.000542556   0.000542556
   0.500367501   0.000000000   0.499632499
   0.499632499   0.499632499   0.000000000
   0.500000000   0.500000000   0.500000000
   0.000000000   0.249457444   0.249457444
   0.000367501   0.250000000   0.750367501
   0.999632499   0.750367501   0.250000000
   0.000000000   0.750000000   0.750000000
   0.499457444   0.250542556   0.750000000
   0.500542556   0.750000000   0.250542556
   0.500000000   0.749632499   0.749632499
   0.250000000   0.000367501   0.249632499
   0.249457444   0.000000000   0.750542556
   0.250542556   0.499457444   0.250000000
   0.750000000   0.000000000   0.250000000
   0.750367501   0.999632499   0.750000000
   0.749632499   0.500000000   0.250367501
   0.750000000   0.500542556   0.749457444
   0.250000000   0.250000000   0.000000000
   0.250367501   0.250367501   0.500000000
   0.249632499   0.750000000   0.999632499
   0.250000000   0.749457444   0.500542556
   0.750000000   0.249632499   0.000367501
   0.749457444   0.250000000   0.499457444
   0.750542556   0.750542556   0.000000000
   0.248751946   0.250289319   0.250055736
   0.250289319   0.248751946   0.749944264
   0.250162498   0.749837502   0.250162498
   0.250055736   0.751248054   0.749710681
   0.751248054   0.250055736   0.250289319
   0.749837502   0.250162498   0.749837502
   0.749710681   0.749944264   0.248751946
   0.749944264   0.749710681   0.751248054
   0.251248054   0.999944264   0.999710681
   0.249837502   0.999837502   0.500162498
   0.249710681   0.500055736   0.001248054
   0.249944264   0.500289319   0.498751946
   0.748751946   0.999710681   0.999944264
   0.750289319   0.001248054   0.500055736
   0.750162498   0.500162498   0.999837502
   0.750055736   0.498751946   0.500289319
   0.999944264   0.251248054   0.000289319
   0.999837502   0.249837502   0.499837502
   0.999710681   0.748751946   0.000055736
   0.001248054   0.750289319   0.499944264
   0.500055736   0.249710681   0.998751946
   0.500289319   0.249944264   0.501248054
   0.500162498   0.750162498   0.000162498
   0.498751946   0.750055736   0.499710681
   0.000055736   0.000289319   0.251248054
   0.000289319   0.000055736   0.748751946
   0.000162498   0.499837502   0.249837502
   0.998751946   0.499944264   0.750289319
   0.499944264   0.998751946   0.249710681
   0.499837502   0.000162498   0.750162498
   0.499710681   0.501248054   0.249944264
   0.501248054   0.499710681   0.750055736
Mg28Ni4O32
   1.00000000
   8.442391798   0.000000000   0.000000000
   0.000000000   8.442391798  -0.000000000
   0.000000000  -0.000000000   8.442391798
  Ni  Mg  O
  4  28  32
Direct configuration=     3
   0.000000000   0.000000000   0.000000000
   0.500000000   0.250000000   0.250000000
   0.250000000   0.500000000   0.750000000
   0.750000000   0.750000000   0.500000000
   0.999441307   0.999441307   0.500000000
   0.000558693   0.500000000   0.999441307
   0.000000000   0.500357146   0.500357146
   0.500000000   0.000558693   0.000558693
   0.500357146   0.000000000   0.499642854
   0.499642854   0.499642854   0.000000000
   0.500000000   0.500000000   0.500000000
   0.000000000   0.249441307   0.249441307
   0.000357146   0.250000000   0.750357146
   0.999642854   0.750357146   0.250000000
   0.000000000   0.750000000   0.750000000
   0.499441307   0.250558693   0.750000000
   0.500558693   0.750000000   0.250558693
   0.500000000   0.749642854   0.749642854
   0.250000000   0.000357146   0.249642854
   0.249441307   0.000000000   0.750558693
   0.250558693   0.499441307   0.250000000
   0.750000000   0.000000000   0.250000000
   0.750357146   0.999642854   0.750000000
   0.749642854   0.500000000   0.250357146
   0.750000000   0.500558693   0.749441307
   0.250000000   0.250000000   0.000000000
   0.250357146   0.250357146   0.500000000
   0.249642854   0.750000000   0.999642854
   0.250000000   0.749441307   0.500558693
   0.750000000   0.249642854   0.000357146
   0.749441307   0.250000000   0.499441307
   0.750558693   0.750558693   0.000000000
   0.248683307   0.250285403   0.250040302
   0.250285403   0.248683307   0.749959698
   0.250146455   0.749853545   0.250146455
   0.250040302   0.751316693   0.749714597
   0.751316693   0.250040302   0.250285403
   0.749853545   0.250146455   0.749853545
   0.749714597   0.749959698   0.248683307
   0.749959698   0.749714597   0.751316693
   0.251316693   0.999959698   0.999714597
   0.249853545   0.999853545   0.500146455
   0.249714597   0.500040302   0.001316693
   0.249959698   0.500285403   0.498683307
   0.748683307   0.999714597   0.999959698
   0.750285403   0.001316693   0.500040302
   0.750146455   0.500146455   0.999853545
   0.750040302   0.498683307   0.500285403
   0.999959698   0.251316693   0.000285403
   0.999853545   0.249853545   0.499853545
   0.999714597   0.748683307   0.000040302
   0.001316693   0.750285403   0.499959698
   0.500040302   0.249714597   0.998683307
   0.500285403   0.249959698   0.501316693
   0.500146455   0.750146455   0.000146455
   0.498683307   0.750040302   0.499714597
   0.000040302   0.000285403   0.251316693
   0.000285403   0.000040302   0.748683307
   0.000146455   0.499853545   0.249853545
   0.998683307   0.499959698   0.750285403
   0.499959698   0.998683307   0.249714597
   0.499853545   0.000146455   0.750146455
   0.499714597   0.501316693   0.249959698
   0.501316693   0.499714597   0.750040302
Mg28Ni4O32
   1.00000000
   8.450888067   0.000000000   0.000000000
   0.000000000   8.450888067   0.000000000
   0.000000000   0.000000000   8.450888067
  Ni  Mg  O
  4  28  32
Direct configuration=     4
   0.000000000   1.000000000   0.000000000
   0.500000000   0.250000000   0.250000000
   0.250000000   0.500000000   0.750000000
   0.750000000   0.750000000   0.500000000
   0.999345664   0.999345664   0.500000000
   0.000654336   0.500000000   0.999345664
   1.000000000   0.500005136   0.500005136
   0.500000000   0.000654336   0.000654336
   0.500005136   1.000000000   0.499994864
   0.499994864   0.499994864   1.000000000
   0.500000000   0.500000000   0.500000000
   0.000000000   0.249345664   0.249345664
   0.000005136   0.250000000   0.750005136
   0.999994864   0.750005136   0.250000000
   0.000000000   0.750000000   0.750000000
   0.499345664   0.250654336   0.750000000
   0.500654336   0.750000000   0.250654336
   0.500000000   0.749994864   0.749994864
   0.250000000   0.000005136   0.249994864
   0.249345664   0.000000000   0.750654336
   0.250654336   0.499345664   0.250000000
   0.750000000   0.000000000   0.250000000
   0.750005136   0.999994864   0.750000000
   0.749994864   0.500000000   0.250005136
   0.750000000   0.500654336   0.749345664
   0.250000000   0.250000000   1.000000000
   0.250005136   0.250005136   0.500000000
   0.249994864   0.750000000   0.999994864
   0.250000000   0.749345664   0.500654336
   0.750000000   0.249994864   0.000005136
   0.749345664   0.250000000   0.499345664
   0.750654336   0.750654336   0.000000000
   0.247888205   0.250077515   0.249725864
   0.250077515   0.247888205   0.750274136
   0.249766659   0.750233341   0.249766659
   0.249725864   0.752111795   0.749922485
   0.752111795   0.249725864   0.250077515
   0.750233341   0.249766659   0.750233341
   0.749922485   0.750274136   0.247888205
   0.750274136   0.749922485   0.752111795
   0.252111795   0.000274136   0.999922485
   0.250233341   0.000233341   0.499766659
   0.249922485   0.499725864   0.002111795
   0.250274136   0.500077515   0.497888205
   0.747888205   0.999922485   0.000274136
   0.750077515   0.002111795   0.499725864
   0.749766659   0.499766659   0.000233341
   0.749725864   0.497888205   0.500077515
   0.000274136   0.252111795   0.000077515
   0.000233341   0.250233341   0.500233341
   0.999922485   0.747888205   0.999725864
   0.002111795   0.750077515   0.500274136
   0.499725864   0.249922485   0.997888205
   0.500077515   0.250274136   0.502111795
   0.499766659   0.749766659   0.999766659
   0.497888205   0.749725864   0.499922485
   0.999725864   0.000077515   0.252111795
   0.000077515   0.999725864   0.747888205
   0.999766659   0.500233341   0.250233341
   0.997888205   0.500274136   0.750077515
   0.500274136   0.997888205   0.249922485
   0.500233341   0.999766659   0.749766659
   0.499922485   0.502111795   0.250274136
   0.502111795   0.499922485   0.749725864
Mg28Ni4O32
   1.00000000
   8.456551434   0.000000000   0.000000000
   0.000000000   8.456551434   0.000000000
   0.000000000   0.000000000   8.456551434
  Ni  Mg  O
  4  28  32
Direct configuration=     5
   1.000000000   1.000000000   0.000000000
   0.500000000   0.250000000   0.250000000
   0.250000000   0.500000000   0.750000000
   0.750000000   0.750000000   0.500000000
   0.999383944   0.999383944   0.500000000
   0.000616056   0.500000000   0.999383944
   1.000000000   0.499733282   0.499733282
   0.500000000   0.000616056   0.000616056
   0.499733282   1.000000000   0.500266718
   0.500266718   0.500266718   1.000000000
   0.500000000   0.500000000   0.500000000
   0.000000000   0.249383944   0.249383944
   0.999733282   0.250000000   0.749733282
   0.000266718   0.749733282   0.250000000
   0.000000000   0.750000000   0.750000000
   0.499383944   0.250616056   0.750000000
   0.500616056   0.750000000   0.250616056
   0.500000000   0.750266718   0.750266718
   0.250000000   0.999733282   0.250266718
   0.249383944   0.000000000   0.750616056
   0.250616056   0.499383944   0.250000000
   0.750000000   0.000000000   0.250000000
   0.749733282   0.000266718   0.750000000
   0.750266718   0.500000000   0.249733282
   0.750000000   0.500616056   0.749383944
   0.250000000   0.250000000   1.000000000
   0.249733282   0.249733282   0.500000000
   0.250266718   0.750000000   0.000266718
   0.250000000   0.749383944   0.500616056
   0.750000000   0.250266718   0.999733282
   0.749383944   0.250000000   0.499383944
   0.750616056   0.750616056   0.000000000
   0.247710020   0.249882739   0.249548309
   0.249882739   0.247710020   0.750451691
   0.249518064   0.750481936   0.249518064
   0.249548309   0.752289980   0.750117261
   0.752289980   0.249548309   0.249882739
   0.750481936   0.249518064   0.750481936
   0.750117261   0.750451691   0.247710020
   0.750451691   0.750117261   0.752289980
   0.252289980   0.000451691   0.000117261
   0.250481936   0.000481936   0.499518064
   0.250117261   0.499548309   0.002289980
   0.250451691   0.499882739   0.497710020
   0.747710020   0.000117261   0.000451691
   0.749882739   0.002289980   0.499548309
   0.749518064   0.499518064   0.000481936
   0.749548309   0.497710020   0.499882739
   0.000451691   0.252289980   0.999882739
   0.000481936   0.250481936   0.500481936
   0.000117261   0.747710020   0.999548309
   0.002289980   0.749882739   0.500451691
   0.499548309   0.250117261   0.997710020
   0.499882739   0.250451691   0.502289980
   0.499518064   0.749518064   0.999518064
   0.497710020   0.749548309   0.500117261
   0.999548309   0.999882739   0.252289980
   0.999882739   0.999548309   0.747710020
   0.999518064   0.500481936   0.250481936
   0.997710020   0.500451691   0.749882739
   0.500451691   0.997710020   0.250117261
   0.500481936   0.999518064   0.749518064
   0.500117261   0.502289980   0.250451691
   0.502289980   0.500117261   0.749548309
Mg28Ni4O32
   1.00000000
   8.464127366   0.000000000   0.000000000
   0.000000000   8.464127366   0.000000000
   0.000000000   0.000000000   8.464127366
  Ni  Mg  O
  4  28  32
Direct configuration=     6
   1.000000000   1.000000000   0.000000000
   0.500000000   0.250000000   0.250000000
   0.250000000   0.500000000   0.750000000
   0.750000000   0.750000000   0.500000000
   0.999462938   0.999462938   0.500000000
   0.000537062   0.500000000   0.999462938
   1.000000000   0.499438456   0.499438456
   0.500000000   0.000537062   0.000537062
   0.499438456   1.000000000   0.500561544
   0.500561544   0.500561544   1.000000000
   0.500000000   0.500000000   0.500000000
   0.000000000   0.249462938   0.249462938
   0.999438456   0.250000000   0.749438456
   0.000561544   0.749438456   0.250000000
   0.000000000   0.750000000   0.750000000
   0.499462938   0.250537062   0.750000000
   0.500537062   0.750000000   0.250537062
   0.500000000   0.750561544   0.750561544
   0.250000000   0.999438456   0.250561544
   0.249462938   0.000000000   0.750537062
   0.250537062   0.499462938   0.250000000
   0.750000000   0.000000000   0.250000000
   0.749438456   0.000561544   0.750000000
   0.750561544   0.500000000   0.249438456
   0.750000000   0.500537062   0.749462938
   0.250000000   0.250000000   1.000000000
   0.249438456   0.249438456   0.500000000
   0.250561544   0.750000000   0.000561544
   0.250000000   0.749462938   0.500537062
   0.750000000   0.250561544   0.999438456
   0.749462938   0.250000000   0.499462938
   0.750537062   0.750537062   0.000000000
   0.247774825   0.249629999   0.249403211
   0.249629999   0.247774825   0.750596789
   0.249276169   0.750723831   0.249276169
   0.249403211   0.752225175   0.750370001
   0.752225175   0.249403211   0.249629999
   0.750723831   0.249276169   0.750723831
   0.750370001   0.750596789   0.247774825
   0.750596789   0.750370001   0.752225175
   0.252225175   0.000596789   0.000370001
   0.250723831   0.000723831   0.499276169
   0.250370001   0.499403211   0.002225175
   0.250596789   0.499629999   0.497774825
   0.747774825   0.000370001   0.000596789
   0.749629999   0.002225175   0.499403211
   0.749276169   0.499276169   0.000723831
   0.749403211   0.497774825   0.499629999
   0.000596789   0.252225175   0.999629999
   0.000723831   0.250723831   0.500723831
   0.000370001   0.747774825   0.999403211
   0.002225175   0.749629999   0.500596789
   0.499403211   0.250370001   0.997774825
   0.499629999   0.250596789   0.502225175
   0.499276169   0.749276169   0.999276169
   0.497774825   0.749403211   0.500370001
   0.999403211   0.999629999   0.252225175
   0.999629999   0.999403211   0.747774825
   0.999276169   0.500723831   0.250723831
   0.997774825   0.500596789   0.749629999
   0.500596789   0.997774825   0.250370001
   0.500723831   0.999276169   0.749276169
   0.500370001   0.502225175   0.250596789
   0.502225175   0.500370001   0.749403211
Mg28Ni4O32
   1.00000000
   8.472419062   0.000000000   0.000000000
   0.000000000   8.472419062   0.000000000
   0.000000000   0.000000000   8.472419062
  Ni  Mg  O
  4  28  32
Direct configuration=     7
   0.000000000   1.000000000   0.000000000
   0.500000000   0.250000000   0.250000000
   0.250000000   0.500000000   0.750000000
   0.750000000   0.750000000   0.500000000
   0.999499404   0.999499404   0.500000000
   0.000500596   0.500000000   0.999499404
   1.000000000   0.499280185   0.499280185
   0.500000000   0.000500596   0.000500596
   0.499280185   1.000000000   0.500719815
   0.500719815   0.500719815   1.000000000
   0.500000000   0.500000000   0.500000000
   0.000000000   0.249499404   0.249499404
   0.999280185   0.250000000   0.749280185
   0.000719815   0.749280185   0.250000000
   0.000000000   0.750000000   0.750000000
   0.499499404   0.250500596   0.750000000
   0.500500596   0.750000000   0.250500596
   0.500000000   0.750719815   0.750719815
   0.250000000   0.999280185   0.250719815
   0.249499404   0.000000000   0.750500596
   0.250500596   0.499499404   0.250000000
   0.750000000   0.000000000   0.250000000
   0.749280185   0.000719815   0.750000000
   0.750719815   0.500000000   0.249280185
   0.750000000   0.500500596   0.749499404
   0.250000000   0.250000000   0.000000000
   0.249280185   0.249280185   0.500000000
   0.250719815   0.750000000   0.000719815
   0.250000000   0.749499404   0.500500596
   0.750000000   0.250719815   0.999280185
   0.749499404   0.250000000   0.499499404
   0.750500596   0.750500596   0.000000000
   0.248040611   0.249432320   0.249378014
   0.249432320   0.248040611   0.750621986
   0.249180415   0.750819585   0.249180415
   0.249378014   0.751959389   0.750567680
   0.751959389   0.249378014   0.249432320
   0.750819585   0.249180415   0.750819585
   0.750567680   0.750621986   0.248040611
   0.750621986   0.750567680   0.751959389
   0.251959389   0.000621986   0.000567680
   0.250819585   0.000819585   0.499180415
   0.250567680   0.499378014   0.001959389
   0.250621986   0.499432320   0.498040611
   0.748040611   0.000567680   0.000621986
   0.749432320   0.001959389   0.499378014
   0.749180415   0.499180415   0.000819585
   0.749378014   0.498040611   0.499432320
   0.000621986   0.251959389   0.999432320
   0.000819585   0.250819585   0.500819585
   0.000567680   0.748040611   0.999378014
   0.001959389   0.749432320   0.500621986
   0.499378014   0.250567680   0.998040611
   0.499432320   0.250621986   0.501959389
   0.499180415   0.749180415   0.999180415
   0.498040611   0.749378014   0.500567680
   0.999378014   0.999432320   0.251959389
   0.999432320   0.999378014   0.748040611
   0.999180415   0.500819585   0.250819585
   0.998040611   0.500621986   0.749432320
   0.500621986   0.998040611   0.250567680
   0.500819585   0.999180415   0.749180415
   0.500567680   0.501959389   0.250621986
   0.501959389   0.500567680   0.749378014
Mg28Ni4O32
   1.00000000
   8.484898815   0.000000000   0.000000000
   0.000000000   8.484898815   0.000000000
   0.000000000   0.000000000   8.484898815
  Ni  Mg  O
  4  28  32
Direct configuration=     8
   0.000000000   0.000000000   0.000000000
   0.500000000   0.250000000   0.250000000
   0.250000000   0.500000000   0.750000000
   0.750000000   0.750000000   0.500000000
   0.999436774   0.999436774   0.500000000
   0.000563226   0.500000000   0.999436774
   1.000000000   0.499296780   0.499296780
   0.500000000   0.000563226   0.000563226
   0.499296780   0.000000000   0.500703220
   0.500703220   0.500703220   1.000000000
   0.500000000   0.500000000   0.500000000
   0.000000000   0.249436774   0.249436774
   0.999296780   0.250000000   0.749296780
   0.000703220   0.749296780   0.250000000
   0.000000000   0.750000000   0.750000000
   0.499436774   0.250563226   0.750000000
   0.500563226   0.750000000   0.250563226
   0.500000000   0.750703220   0.750703220
   0.250000000   0.999296780   0.250703220
   0.249436774   0.000000000   0.750563226
   0.250563226   0.499436774   0.250000000
   0.750000000   0.000000000   0.250000000
   0.749296780   0.000703220   0.750000000
   0.750703220   0.500000000   0.249296780
   0.750000000   0.500563226   0.749436774
   0.250000000   0.250000000   0.000000000
   0.249296780   0.249296780   0.500000000
   0.250703220   0.750000000   0.000703220
   0.250000000   0.749436774   0.500563226
   0.750000000   0.250703220   0.999296780
   0.749436774   0.250000000   0.499436774
   0.750563226   0.750563226   0.000000000
   0.248532621   0.249294189   0.249508742
   0.249294189   0.248532621   0.750491258
   0.249291447   0.750708553   0.249291447
   0.249508742   0.751467379   0.750705811
   0.751467379   0.249508742   0.249294189
   0.750708553   0.249291447   0.750708553
   0.750705811   0.750491258   0.248532621
   0.750491258   0.750705811   0.751467379
   0.251467379   0.000491258   0.000705811
   0.250708553   0.000708553   0.499291447
   0.250705811   0.499508742   0.001467379
   0.250491258   0.499294189   0.498532621
   0.748532621   0.000705811   0.000491258
   0.749294189   0.001467379   0.499508742
   0.749291447   0.499291447   0.000708553
   0.749508742   0.498532621   0.499294189
   0.000491258   0.251467379   0.999294189
   0.000708553   0.250708553   0.500708553
   0.000705811   0.748532621   0.999508742
   0.001467379   0.749294189   0.500491258
   0.499508742   0.250705811   0.998532621
   0.499294189   0.250491258   0.501467379
   0.499291447   0.749291447   0.999291447
   0.498532621   0.749508742   0.500705811
   0.999508742   0.999294189   0.251467379
   0.999294189   0.999508742   0.748532621
   0.999291447   0.500708553   0.250708553
   0.998532621   0.500491258   0.749294189
   0.500491258   0.998532621   0.250705811
   0.500708553   0.999291447   0.749291447
   0.500705811   0.501467379   0.250491258
   0.501467379   0.500705811   0.749508742
Mg28Ni4O32
   1.00000000
   8.495210851   0.000000000   0.000000000
   0.000000000   8.495210851   0.000000000
   0.000000000   0.000000000   8.495210851
  Ni  Mg  O
  4  28  32
Direct configuration=     9
   0.000000000   0.000000000   0.000000000
   0.500000000   0.250000000   0.250000000
   0.250000000   0.500000000   0.750000000
   0.750000000   0.750000000   0.500000000
   0.999255942   0.999255942   0.500000000
   0.000744058   0.500000000   0.999255942
   0.000000000   0.499569100   0.499569100
   0.500000000   0.000744058   0.000744058
   0.499569100   0.000000000   0.500430900
   0.500430900   0.500430900   1.000000000
   0.500000000   0.500000000   0.500000000
   0.000000000   0.249255942   0.249255942
   0.999569100   0.250000000   0.749569100
   0.000430900   0.749569100   0.250000000
   0.000000000   0.750000000   0.750000000
   0.499255942   0.250744058   0.750000000
   0.500744058   0.750000000   0.250744058
   0.500000000   0.750430900   0.750430900
   0.250000000   0.999569100   0.250430900
   0.249255942   0.000000000   0.750744058
   0.250744058   0.499255942   0.250000000
   0.750000000   0.000000000   0.250000000
   0.749569100   0.000430900   0.750000000
   0.750430900   0.500000000   0.249569100
   0.750000000   0.500744058   0.749255942
   0.250000000   0.250000000   0.000000000
   0.249569100   0.249569100   0.500000000
   0.250430900   0.750000000   0.000430900
   0.250000000   0.749255942   0.500744058
   0.750000000   0.250430900   0.999569100
   0.749255942   0.250000000   0.499255942
   0.750744058   0.750744058   0.000000000
   0.248931159   0.249378818   0.249764873
   0.249378818   0.248931159   0.750235127
   0.249655081   0.750344919   0.249655081
   0.249764873   0.751068841   0.750621182
   0.751068841   0.249764873   0.249378818
   0.750344919   0.249655081   0.750344919
   0.750621182   0.750235127   0.248931159
   0.750235127   0.750621182   0.751068841
   0.251068841   0.000235127   0.000621182
   0.250344919   0.000344919   0.499655081
   0.250621182   0.499764873   0.001068841
   0.250235127   0.499378818   0.498931159
   0.748931159   0.000621182   0.000235127
   0.749378818   0.001068841   0.499764873
   0.749655081   0.499655081   0.000344919
   0.749764873   0.498931159   0.499378818
   0.000235127   0.251068841   0.999378818
   0.000344919   0.250344919   0.500344919
   0.000621182   0.748931159   0.999764873
   0.001068841   0.749378818   0.500235127
   0.499764873   0.250621182   0.998931159
   0.499378818   0.250235127   0.501068841
   0.499655081   0.749655081   0.999655081
   0.498931159   0.749764873   0.500621182
   0.999764873   0.999378818   0.251068841
   0.999378818   0.999764873   0.748931159
   0.999655081   0.500344919   0.250344919
   0.998931159   0.500235127   0.749378818
   0.500235127   0.998931159   0.250621182
   0.500344919   0.999655081   0.749655081
   0.500621182   0.501068841   0.250235127
   0.501068841   0.500621182   0.749764873
Mg28Ni4O32
   1.00000000
   8.498691656   0.000000000   0.000000000
   0.000000000   8.498691656   0.000000000
   0.000000000   0.000000000   8.498691656
  Ni  Mg  O
  4  28  32
Direct configuration=     10
   0.000000000   0.000000000   0.000000000
   0.500000000   0.250000000   0.250000000
   0.250000000   0.500000000   0.750000000
   0.750000000   0.750000000   0.500000000
   0.999100851   0.999100851   0.500000000
   0.000899149   0.500000000   0.999100851
   0.000000000   0.499868385   0.499868385
   0.500000000   0.000899149   0.000899149
   0.499868385   0.000000000   0.500131615
   0.500131615   0.500131615   0.000000000
   0.500000000   0.500000000   0.500000000
   0.000000000   0.249100851   0.249100851
   0.999868385   0.250000000   0.749868385
   0.000131615   0.749868385   0.250000000
   0.000000000   0.750000000   0.750000000
   0.499100851   0.250899149   0.750000000
   0.500899149   0.750000000   0.250899149
   0.500000000   0.750131615   0.750131615
   0.250000000   0.999868385   0.250131615
   0.249100851   0.000000000   0.750899149
   0.250899149   0.499100851   0.250000000
   0.750000000   0.000000000   0.250000000
   0.749868385   0.000131615   0.750000000
   0.750131615   0.500000000   0.249868385
   0.750000000   0.500899149   0.749100851
   0.250000000   0.250000000   0.000000000
   0.249868385   0.249868385   0.500000000
   0.250131615   0.750000000   0.000131615
   0.250000000   0.749100851   0.500899149
   0.750000000   0.250131615   0.999868385
   0.749100851   0.250000000   0.499100851
   0.750899149   0.750899149   0.000000000
   0.249012469   0.249606525   0.249954364
   0.249606525   0.249012469   0.750045636
   0.250020361   0.749979639   0.250020361
   0.249954364   0.750987531   0.750393475
   0.750987531   0.249954364   0.249606525
   0.749979639   0.250020361   0.749979639
   0.750393475   0.750045636   0.249012469
   0.750045636   0.750393475   0.750987531
   0.250987531   0.000045636   0.000393475
   0.249979639   0.999979639   0.500020361
   0.250393475   0.499954364   0.000987531
   0.250045636   0.499606525   0.499012469
   0.749012469   0.000393475   0.000045636
   0.749606525   0.000987531   0.499954364
   0.750020361   0.500020361   0.999979639
   0.749954364   0.499012469   0.499606525
   0.000045636   0.250987531   0.999606525
   0.999979639   0.249979639   0.499979639
   0.000393475   0.749012469   0.999954364
   0.000987531   0.749606525   0.500045636
   0.499954364   0.250393475   0.999012469
   0.499606525   0.250045636   0.500987531
   0.500020361   0.750020361   0.000020361
   0.499012469   0.749954364   0.500393475
   0.999954364   0.999606525   0.250987531
   0.999606525   0.999954364   0.749012469
   0.000020361   0.499979639   0.249979639
   0.999012469   0.500045636   0.749606525
   0.500045636   0.999012469   0.250393475
   0.499979639   0.000020361   0.750020361
   0.500393475   0.500987531   0.250045636
   0.500987531   0.500393475   0.749954364
Mg28Ni4O32
   1.00000000
   8.498116342   0.000000000   0.000000000
   0.000000000   8.498116342   0.000000000
   0.000000000   0.000000000   8.498116342
  Ni  Mg  O
  4  28  32
Direct configuration=     11
   0.000000000   0.000000000   0.000000000
   0.500000000   0.250000000   0.250000000
   0.250000000   0.500000000   0.750000000
   0.750000000   0.750000000   0.500000000