Mg28Ni4O32
   1.00000000
   8.440344824  -0.000000000   0.000000000
  -0.000000000   8.440353605  -0.000006887
   0.000000000  -0.000006887   8.440353605
  Ni  Mg  O
  4  28  32
Direct configuration=     1
   0.000000000   0.000084649   0.000084649
   0.500000000   0.500084649   0.500084649
   0.000000000   0.249915351   0.249915351
   0.500000000   0.749915351   0.749915351
   0.000000000   0.000094407   0.499917575
   0.000000000   0.499917575   0.000094407
   0.000000000   0.499889610   0.499889610
   0.500000000   0.999889610   0.999889610
   0.500000000   0.999917575   0.500094407
   0.500000000   0.500094407   0.999917575
   0.000000000   0.249905593   0.750082425
   0.000000000   0.750082425   0.249905593
   0.000000000   0.750110390   0.750110390
   0.500000000   0.250110390   0.250110390
   0.500000000   0.250082425   0.749905593
   0.500000000   0.749905593   0.250082425
   0.249838129   0.000093387   0.249906613
   0.250000000   0.999911100   0.750088900
   0.250000000   0.499911100   0.250088900
   0.250161871   0.500093387   0.749906613
   0.750161871   0.000093387   0.249906613
   0.750000000   0.999911100   0.750088900
   0.750000000   0.499911100   0.250088900
   0.749838129   0.500093387   0.749906613
   0.249838129   0.249906613   0.000093387
   0.250000000   0.250088900   0.499911100
   0.250000000   0.750088900   0.999911100
   0.250161871   0.749906613   0.500093387
   0.750161871   0.249906613   0.000093387
   0.750000000   0.250088900   0.499911100
   0.750000000   0.750088900   0.999911100
   0.749838129   0.749906613   0.500093387
   0.250207440   0.249949911   0.249949911
   0.250000000   0.250000174   0.750000174
   0.250000000   0.750000174   0.250000174
   0.249792560   0.749949911   0.749949911
   0.749792560   0.249949911   0.249949911
   0.750000000   0.250000174   0.750000174
   0.750000000   0.750000174   0.250000174
   0.750207440   0.749949911   0.749949911
   0.250207440   0.000050089   0.000050089
   0.250000000   0.999999826   0.499999826
   0.250000000   0.499999826   0.999999826
   0.249792560   0.500050089   0.500050089
   0.749792560   0.000050089   0.000050089
   0.750000000   0.999999826   0.499999826
   0.750000000   0.499999826   0.999999826
   0.750207440   0.500050089   0.500050089
   0.000000000   0.250163981   0.999836019
   0.000000000   0.250006038   0.500226924
   0.000000000   0.749773076   0.999993962
   0.000000000   0.749986186   0.500013814
   0.500000000   0.249986186   0.000013814
   0.500000000   0.249773076   0.499993962
   0.500000000   0.750006038   0.000226924
   0.500000000   0.750163981   0.499836019
   0.000000000   0.999836019   0.250163981
   0.000000000   0.999993962   0.749773076
   0.000000000   0.500226924   0.250006038
   0.000000000   0.500013814   0.749986186
   0.500000000   0.000013814   0.249986186
   0.500000000   0.000226924   0.750006038
   0.500000000   0.499993962   0.249773076
   0.500000000   0.499836019   0.750163981
Mg28Ni4O32
   1.00000000
   8.441986358   0.000000000   0.000000000
   0.000000000   8.442038468  -0.000040800
   0.000000000  -0.000040800   8.442038468
  Ni  Mg  O
  4  28  32
Direct configuration=     2
   0.000000000   0.000397564   0.000397564
   0.500000000   0.500397564   0.500397564
   0.000000000   0.249602436   0.249602436
   0.500000000   0.749602436   0.749602436
   0.000000000   0.000431335   0.499617210
   0.000000000   0.499617210   0.000431335
   0.000000000   0.499493603   0.499493603
   0.500000000   0.999493603   0.999493603
   0.500000000   0.999617210   0.500431335
   0.500000000   0.500431335   0.999617210
   0.000000000   0.249568665   0.750382790
   0.000000000   0.750382790   0.249568665
   0.000000000   0.750506397   0.750506397
   0.500000000   0.250506397   0.250506397
   0.500000000   0.250382790   0.749568665
   0.500000000   0.749568665   0.250382790
   0.249264901   0.000435065   0.249564935
   0.250000000   0.999593695   0.750406305
   0.250000000   0.499593695   0.250406305
   0.250735099   0.500435065   0.749564935
   0.750735099   0.000435065   0.249564935
   0.750000000   0.999593695   0.750406305
   0.750000000   0.499593695   0.250406305
   0.749264901   0.500435065   0.749564935
   0.249264901   0.249564935   0.000435065
   0.250000000   0.250406305   0.499593695
   0.250000000   0.750406305   0.999593695
   0.250735099   0.749564935   0.500435065
   0.750735099   0.249564935   0.000435065
   0.750000000   0.250406305   0.499593695
   0.750000000   0.750406305   0.999593695
   0.749264901   0.749564935   0.500435065
   0.250978673   0.249759777   0.249759777
   0.250000000   0.249998870   0.749998870
   0.250000000   0.749998870   0.249998870
   0.249021327   0.749759777   0.749759777
   0.749021327   0.249759777   0.249759777
   0.750000000   0.249998870   0.749998870
   0.750000000   0.749998870   0.249998870
   0.750978673   0.749759777   0.749759777
   0.250978673   0.000240223   0.000240223
   0.250000000   0.000001130   0.500001130
   0.250000000   0.500001130   0.000001130
   0.249021327   0.500240223   0.500240223
   0.749021327   0.000240223   0.000240223
   0.750000000   0.000001130   0.500001130
   0.750000000   0.500001130   0.000001130
   0.750978673   0.500240223   0.500240223
   0.000000000   0.250769440   0.999230560
   0.000000000   0.250034172   0.501059123
   0.000000000   0.748940877   0.999965828
   0.000000000   0.749936257   0.500063743
   0.500000000   0.249936257   0.000063743
   0.500000000   0.248940877   0.499965828
   0.500000000   0.750034172   0.001059123
   0.500000000   0.750769440   0.499230560
   0.000000000   0.999230560   0.250769440
   0.000000000   0.999965828   0.748940877
   0.000000000   0.501059123   0.250034172
   0.000000000   0.500063743   0.749936257
   0.500000000   0.000063743   0.249936257
   0.500000000   0.001059123   0.750034172
   0.500000000   0.499965828   0.248940877
   0.500000000   0.499230560   0.750769440
Mg28Ni4O32
   1.00000000
   8.442482318   0.000000000  -0.000000000
   0.000000000   8.442548842  -0.000051860
  -0.000000000  -0.000051860   8.442548842
  Ni  Mg  O
  4  28  32
Direct configuration=     3
   0.000000000   0.000421599   0.000421599
   0.500000000   0.500421599   0.500421599
   0.000000000   0.249578401   0.249578401
   0.500000000   0.749578401   0.749578401
   0.000000000   0.000444658   0.499601843
   0.000000000   0.499601843   0.000444658
   0.000000000   0.499476423   0.499476423
   0.500000000   0.999476423   0.999476423
   0.500000000   0.999601843   0.500444658
   0.500000000   0.500444658   0.999601843
   0.000000000   0.249555342   0.750398157
   0.000000000   0.750398157   0.249555342
   0.000000000   0.750523577   0.750523577
   0.500000000   0.250523577   0.250523577
   0.500000000   0.250398157   0.749555342
   0.500000000   0.749555342   0.250398157
   0.249248255   0.000454762   0.249545238
   0.250000000   0.999581574   0.750418426
   0.250000000   0.499581574   0.250418426
   0.250751745   0.500454762   0.749545238
   0.750751745   0.000454762   0.249545238
   0.750000000   0.999581574   0.750418426
   0.750000000   0.499581574   0.250418426
   0.749248255   0.500454762   0.749545238
   0.249248255   0.249545238   0.000454762
   0.250000000   0.250418426   0.499581574
   0.250000000   0.750418426   0.999581574
   0.250751745   0.749545238   0.500454762
   0.750751745   0.249545238   0.000454762
   0.750000000   0.250418426   0.499581574
   0.750000000   0.750418426   0.999581574
   0.749248255   0.749545238   0.500454762
   0.251034977   0.249742904   0.249742904
   0.250000000   0.249997220   0.749997220
   0.250000000   0.749997220   0.249997220
   0.248965023   0.749742904   0.749742904
   0.748965023   0.249742904   0.249742904
   0.750000000   0.249997220   0.749997220
   0.750000000   0.749997220   0.249997220
   0.751034977   0.749742904   0.749742904
   0.251034977   0.000257096   0.000257096
   0.250000000   0.000002780   0.500002780
   0.250000000   0.500002780   0.000002780
   0.248965023   0.500257096   0.500257096
   0.748965023   0.000257096   0.000257096
   0.750000000   0.000002780   0.500002780
   0.750000000   0.500002780   0.000002780
   0.751034977   0.500257096   0.500257096
   0.000000000   0.250808697   0.999191303
   0.000000000   0.250040917   0.501110931
   0.000000000   0.748889069   0.999959083
   0.000000000   0.749934186   0.500065814
   0.500000000   0.249934186   0.000065814
   0.500000000   0.248889069   0.499959083
   0.500000000   0.750040917   0.001110931
   0.500000000   0.750808697   0.499191303
   0.000000000   0.999191303   0.250808697
   0.000000000   0.999959083   0.748889069
   0.000000000   0.501110931   0.250040917
   0.000000000   0.500065814   0.749934186
   0.500000000   0.000065814   0.249934186
   0.500000000   0.001110931   0.750040917
   0.500000000   0.499959083   0.248889069
   0.500000000   0.499191303   0.750808697
Mg28Ni4O32
   1.00000000
   8.454155221  -0.000000000   0.000000000
  -0.000000000   8.454565126  -0.000315041
   0.000000000  -0.000315041   8.454565126
  Ni  Mg  O
  4  28  32
Direct configuration=     4
   0.000000000   0.000778879   0.000778879
   0.500000000   0.500778879   0.500778879
   0.000000000   0.249221121   0.249221121
   0.500000000   0.749221121   0.749221121
   0.000000000   0.000523638   0.499451784
   0.000000000   0.499451784   0.000523638
   0.000000000   0.499347542   0.499347542
   0.500000000   0.999347542   0.999347542
   0.500000000   0.999451784   0.500523638
   0.500000000   0.500523638   0.999451784
   0.000000000   0.249476362   0.750548216
   0.000000000   0.750548216   0.249476362
   0.000000000   0.750652458   0.750652458
   0.500000000   0.250652458   0.250652458
   0.500000000   0.250548216   0.749476362
   0.500000000   0.749476362   0.250548216
   0.249276799   0.000677485   0.249322515
   0.250000000   0.999518378   0.750481622
   0.250000000   0.499518378   0.250481622
   0.250723201   0.500677485   0.749322515
   0.750723201   0.000677485   0.249322515
   0.750000000   0.999518378   0.750481622
   0.750000000   0.499518378   0.250481622
   0.749276799   0.500677485   0.749322515
   0.249276799   0.249322515   0.000677485
   0.250000000   0.250481622   0.499518378
   0.250000000   0.750481622   0.999518378
   0.250723201   0.749322515   0.500677485
   0.750723201   0.249322515   0.000677485
   0.750000000   0.250481622   0.499518378
   0.750000000   0.750481622   0.999518378
   0.749276799   0.749322515   0.500677485
   0.251827880   0.249474386   0.249474386
   0.250000000   0.249960035   0.749960035
   0.250000000   0.749960035   0.249960035
   0.248172120   0.749474386   0.749474386
   0.748172120   0.249474386   0.249474386
   0.750000000   0.249960035   0.749960035
   0.750000000   0.749960035   0.249960035
   0.751827880   0.749474386   0.749474386
   0.251827880   0.000525614   0.000525614
   0.250000000   0.000039965   0.500039965
   0.250000000   0.500039965   0.000039965
   0.248172120   0.500525614   0.500525614
   0.748172120   0.000525614   0.000525614
   0.750000000   0.000039965   0.500039965
   0.750000000   0.500039965   0.000039965
   0.751827880   0.500525614   0.500525614
   0.000000000   0.251308119   0.998691881
   0.000000000   0.250181033   0.501744232
   0.000000000   0.748255768   0.999818967
   0.000000000   0.749925592   0.500074408
   0.500000000   0.249925592   0.000074408
   0.500000000   0.248255768   0.499818967
   0.500000000   0.750181033   0.001744232
   0.500000000   0.751308119   0.498691881
   0.000000000   0.998691881   0.251308119
   0.000000000   0.999818967   0.748255768
   0.000000000   0.501744232   0.250181033
   0.000000000   0.500074408   0.749925592
   0.500000000   0.000074408   0.249925592
   0.500000000   0.001744232   0.750181033
   0.500000000   0.499818967   0.248255768
   0.500000000   0.498691881   0.751308119
Mg28Ni4O32
   1.00000000
   8.468116522  -0.000000000  -0.000000000
  -0.000000000   8.468941171  -0.000633283
  -0.000000000  -0.000633283   8.468941171
  Ni  Mg  O
  4  28  32
Direct configuration=     5
   0.000000000   0.001018631   0.001018631
   0.500000000   0.501018631   0.501018631
   0.000000000   0.248981369   0.248981369
   0.500000000   0.748981369   0.748981369
   0.000000000   0.000442554   0.499446796
   0.000000000   0.499446796   0.000442554
   0.000000000   0.499405081   0.499405081
   0.500000000   0.999405081   0.999405081
   0.500000000   0.999446796   0.500442554
   0.500000000   0.500442554   0.999446796
   0.000000000   0.249557446   0.750553204
   0.000000000   0.750553204   0.249557446
   0.000000000   0.750594919   0.750594919
   0.500000000   0.250594919   0.250594919
   0.500000000   0.250553204   0.749557446
   0.500000000   0.749557446   0.250553204
   0.249630829   0.000735421   0.249264579
   0.250000000   0.999609319   0.750390681
   0.250000000   0.499609319   0.250390681
   0.250369171   0.500735421   0.749264579
   0.750369171   0.000735421   0.249264579
   0.750000000   0.999609319   0.750390681
   0.750000000   0.499609319   0.250390681
   0.749630829   0.500735421   0.749264579
   0.249630829   0.249264579   0.000735421
   0.250000000   0.250390681   0.499609319
   0.250000000   0.750390681   0.999609319
   0.250369171   0.749264579   0.500735421
   0.750369171   0.249264579   0.000735421
   0.750000000   0.250390681   0.499609319
   0.750000000   0.750390681   0.999609319
   0.749630829   0.749264579   0.500735421
   0.252282971   0.249281111   0.249281111
   0.250000000   0.249923245   0.749923245
   0.250000000   0.749923245   0.249923245
   0.247717029   0.749281111   0.749281111
   0.747717029   0.249281111   0.249281111
   0.750000000   0.249923245   0.749923245
   0.750000000   0.749923245   0.249923245
   0.752282971   0.749281111   0.749281111
   0.252282971   0.000718889   0.000718889
   0.250000000   0.000076755   0.500076755
   0.250000000   0.500076755   0.000076755
   0.247717029   0.500718889   0.500718889
   0.747717029   0.000718889   0.000718889
   0.750000000   0.000076755   0.500076755
   0.750000000   0.500076755   0.000076755
   0.752282971   0.500718889   0.500718889
   0.000000000   0.251522994   0.998477006
   0.000000000   0.250313341   0.501980132
   0.000000000   0.748019868   0.999686659
   0.000000000   0.749952989   0.500047011
   0.500000000   0.249952989   0.000047011
   0.500000000   0.248019868   0.499686659
   0.500000000   0.750313341   0.001980132
   0.500000000   0.751522994   0.498477006
   0.000000000   0.998477006   0.251522994
   0.000000000   0.999686659   0.748019868
   0.000000000   0.501980132   0.250313341
   0.000000000   0.500047011   0.749952989
   0.500000000   0.000047011   0.249952989
   0.500000000   0.001980132   0.750313341
   0.500000000   0.499686659   0.248019868
   0.500000000   0.498477006   0.751522994
Mg28Ni4O32
   1.00000000
   8.486191528  -0.000000000  -0.000000000
  -0.000000000   8.487557658  -0.001050627
  -0.000000000  -0.001050627   8.487557658
  Ni  Mg  O
  4  28  32
Direct configuration=     6
   0.000000000   0.001135281   0.001135281
   0.500000000   0.501135281   0.501135281
   0.000000000   0.248864719   0.248864719
   0.500000000   0.748864719   0.748864719
   0.000000000   0.000215302   0.499590480
   0.000000000   0.499590480   0.000215302
   0.000000000   0.499637249   0.499637249
   0.500000000   0.999637249   0.999637249
   0.500000000   0.999590480   0.500215302
   0.500000000   0.500215302   0.999590480
   0.000000000   0.249784698   0.750409520
   0.000000000   0.750409520   0.249784698
   0.000000000   0.750362751   0.750362751
   0.500000000   0.250362751   0.250362751
   0.500000000   0.250409520   0.749784698
   0.500000000   0.749784698   0.250409520
   0.250318355   0.000612480   0.249387520
   0.250000000   0.999844487   0.750155513
   0.250000000   0.499844487   0.250155513
   0.249681645   0.500612480   0.749387520
   0.749681645   0.000612480   0.249387520
   0.750000000   0.999844487   0.750155513
   0.750000000   0.499844487   0.250155513
   0.750318355   0.500612480   0.749387520
   0.250318355   0.249387520   0.000612480
   0.250000000   0.250155513   0.499844487
   0.250000000   0.750155513   0.999844487
   0.249681645   0.749387520   0.500612480
   0.749681645   0.249387520   0.000612480
   0.750000000   0.250155513   0.499844487
   0.750000000   0.750155513   0.999844487
   0.750318355   0.749387520   0.500612480
   0.252346448   0.249180115   0.249180115
   0.250000000   0.249892326   0.749892326
   0.250000000   0.749892326   0.249892326
   0.247653552   0.749180115   0.749180115
   0.747653552   0.249180115   0.249180115
   0.750000000   0.249892326   0.749892326
   0.750000000   0.749892326   0.249892326
   0.752346448   0.749180115   0.749180115
   0.252346448   0.000819885   0.000819885
   0.250000000   0.000107674   0.500107674
   0.250000000   0.500107674   0.000107674
   0.247653552   0.500819885   0.500819885
   0.747653552   0.000819885   0.000819885
   0.750000000   0.000107674   0.500107674
   0.750000000   0.500107674   0.000107674
   0.752346448   0.500819885   0.500819885
   0.000000000   0.251410876   0.998589124
   0.000000000   0.250419421   0.501763302
   0.000000000   0.748236698   0.999580579
   0.000000000   0.750027675   0.499972325
   0.500000000   0.250027675   0.999972325
   0.500000000   0.248236698   0.499580579
   0.500000000   0.750419421   0.001763302
   0.500000000   0.751410876   0.498589124
   0.000000000   0.998589124   0.251410876
   0.000000000   0.999580579   0.748236698
   0.000000000   0.501763302   0.250419421
   0.000000000   0.499972325   0.750027675
   0.500000000   0.999972325   0.250027675
   0.500000000   0.001763302   0.750419421
   0.500000000   0.499580579   0.248236698
   0.500000000   0.498589124   0.751410876
Mg28Ni4O32
   1.00000000
   8.494138123  -0.000000000  -0.000000000
  -0.000000000   8.495746282  -0.001240653
  -0.000000000  -0.001240653   8.495746282
  Ni  Mg  O
  4  28  32
Direct configuration=     7
   0.000000000   0.001031939   0.001031939
   0.500000000   0.501031939   0.501031939
   0.000000000   0.248968061   0.248968061
   0.500000000   0.748968061   0.748968061
   0.000000000   0.000087138   0.499734212
   0.000000000   0.499734212   0.000087138
   0.000000000   0.499793195   0.499793195
   0.500000000   0.999793195   0.999793195
   0.500000000   0.999734212   0.500087138
   0.500000000   0.500087138   0.999734212
   0.000000000   0.249912862   0.750265788
   0.000000000   0.750265788   0.249912862
   0.000000000   0.750206805   0.750206805
   0.500000000   0.250206805   0.250206805
   0.500000000   0.250265788   0.749912862
   0.500000000   0.749912862   0.250265788
   0.250679989   0.000425764   0.249574236
   0.250000000   0.999978250   0.750021750
   0.250000000   0.499978250   0.250021750
   0.249320011   0.500425764   0.749574236
   0.749320011   0.000425764   0.249574236
   0.750000000   0.999978250   0.750021750
   0.750000000   0.499978250   0.250021750
   0.750679989   0.500425764   0.749574236
   0.250679989   0.249574236   0.000425764
   0.250000000   0.250021750   0.499978250
   0.250000000   0.750021750   0.999978250
   0.249320011   0.749574236   0.500425764
   0.749320011   0.249574236   0.000425764
   0.750000000   0.250021750   0.499978250
   0.750000000   0.750021750   0.999978250
   0.750679989   0.749574236   0.500425764
   0.251948752   0.249270082   0.249270082
   0.250000000   0.249900659   0.749900659
   0.250000000   0.749900659   0.249900659
   0.248051248   0.749270082   0.749270082
   0.748051248   0.249270082   0.249270082
   0.750000000   0.249900659   0.749900659
   0.750000000   0.749900659   0.249900659
   0.751948752   0.749270082   0.749270082
   0.251948752   0.000729918   0.000729918
   0.250000000   0.000099341   0.500099341
   0.250000000   0.500099341   0.000099341
   0.248051248   0.500729918   0.500729918
   0.748051248   0.000729918   0.000729918
   0.750000000   0.000099341   0.500099341
   0.750000000   0.500099341   0.000099341
   0.751948752   0.500729918   0.500729918
   0.000000000   0.251064667   0.998935333
   0.000000000   0.250384270   0.501280508
   0.000000000   0.748719492   0.999615730
   0.000000000   0.750088781   0.499911219
   0.500000000   0.250088781   0.999911219
   0.500000000   0.248719492   0.499615730
   0.500000000   0.750384270   0.001280508
   0.500000000   0.751064667   0.498935333
   0.000000000   0.998935333   0.251064667
   0.000000000   0.999615730   0.748719492
   0.000000000   0.501280508   0.250384270
   0.000000000   0.499911219   0.750088781
   0.500000000   0.999911219   0.250088781
   0.500000000   0.001280508   0.750384270
   0.500000000   0.499615730   0.248719492
   0.500000000   0.498935333   0.751064667
Mg28Ni4O32
   1.00000000
   8.496173522  -0.000000000   0.000000000
  -0.000000000   8.497847929  -0.001297675
   0.000000000  -0.001297675   8.497847929
  Ni  Mg  O
  4  28  32
Direct configuration=     8
   0.000000000   0.000879002   0.000879002
   0.500000000   0.500879002   0.500879002
   0.000000000   0.249120998   0.249120998
   0.500000000   0.749120998   0.749120998
   0.000000000   0.000105809   0.499793439
   0.000000000   0.499793439   0.000105809
   0.000000000   0.499801301   0.499801301
   0.500000000   0.999801301   0.999801301
   0.500000000   0.999793439   0.500105809
   0.500000000   0.500105809   0.999793439
   0.000000000   0.249894191   0.750206561
   0.000000000   0.750206561   0.249894191
   0.000000000   0.750198699   0.750198699
   0.500000000   0.250198699   0.250198699
   0.500000000   0.250206561   0.749894191
   0.500000000   0.749894191   0.250206561
   0.250682445   0.000298101   0.249701899
   0.250000000   0.999969507   0.750030493
   0.250000000   0.499969507   0.250030493
   0.249317555   0.500298101   0.749701899
   0.749317555   0.000298101   0.249701899
   0.750000000   0.999969507   0.750030493
   0.750000000   0.499969507   0.250030493
   0.750682445   0.500298101   0.749701899
   0.250682445   0.249701899   0.000298101
   0.250000000   0.250030493   0.499969507
   0.250000000   0.750030493   0.999969507
   0.249317555   0.749701899   0.500298101
   0.749317555   0.249701899   0.000298101
   0.750000000   0.250030493   0.499969507
   0.750000000   0.750030493   0.999969507
   0.750682445   0.749701899   0.500298101
   0.251495423   0.249420171   0.249420171
   0.250000000   0.249928475   0.749928475
   0.250000000   0.749928475   0.249928475
   0.248504577   0.749420171   0.749420171
   0.748504577   0.249420171   0.249420171
   0.750000000   0.249928475   0.749928475
   0.750000000   0.749928475   0.249928475
   0.751495423   0.749420171   0.749420171
   0.251495423   0.000579829   0.000579829
   0.250000000   0.000071525   0.500071525
   0.250000000   0.500071525   0.000071525
   0.248504577   0.500579829   0.500579829
   0.748504577   0.000579829   0.000579829
   0.750000000   0.000071525   0.500071525
   0.750000000   0.500071525   0.000071525
   0.751495423   0.500579829   0.500579829
   0.000000000   0.250751472   0.999248528
   0.000000000   0.250277583   0.500876196
   0.000000000   0.749123804   0.999722417
   0.000000000   0.750121253   0.499878747
   0.500000000   0.250121253   0.999878747
   0.500000000   0.249123804   0.499722417
   0.500000000   0.750277583   0.000876196
   0.500000000   0.750751472   0.499248528
   0.000000000   0.999248528   0.250751472
   0.000000000   0.999722417   0.749123804
   0.000000000   0.500876196   0.250277583
   0.000000000   0.499878747   0.750121253
   0.500000000   0.999878747   0.250121253
   0.500000000   0.000876196   0.750277583
   0.500000000   0.499722417   0.249123804
   0.500000000   0.499248528   0.750751472
Mg28Ni4O32
   1.00000000
   8.496712202  -0.000000000   0.000000000
  -0.000000000   8.498409449  -0.001323480
   0.000000000  -0.001323480   8.498409449
  Ni  Mg  O
  4  28  32
Direct configuration=     9
   0.000000000   0.000744446   0.000744446
   0.500000000   0.500744446   0.500744446
   0.000000000   0.249255554   0.249255554
   0.500000000   0.749255554   0.749255554
   0.000000000   0.000235015   0.499773800
   0.000000000   0.499773800   0.000235015
   0.000000000   0.499693738   0.499693738
   0.500000000   0.999693738   0.999693738
   0.500000000   0.999773800   0.500235015
   0.500000000   0.500235015   0.999773800
   0.000000000   0.249764985   0.750226200
   0.000000000   0.750226200   0.249764985
   0.000000000   0.750306262   0.750306262
   0.500000000   0.250306262   0.250306262
   0.500000000   0.250226200   0.749764985
   0.500000000   0.749764985   0.250226200
   0.250446711   0.000240063   0.249759937
   0.250000000   0.999857333   0.750142667
   0.250000000   0.499857333   0.250142667
   0.249553289   0.500240063   0.749759937
   0.749553289   0.000240063   0.249759937
   0.750000000   0.999857333   0.750142667
   0.750000000   0.499857333   0.250142667
   0.750446711   0.500240063   0.749759937
   0.250446711   0.249759937   0.000240063
   0.250000000   0.250142667   0.499857333
   0.250000000   0.750142667   0.999857333
   0.249553289   0.749759937   0.500240063
   0.749553289   0.249759937   0.000240063
   0.750000000   0.250142667   0.499857333
   0.750000000   0.750142667   0.999857333
   0.750446711   0.749759937   0.500240063
   0.251111203   0.249575925   0.249575925
   0.250000000   0.249961981   0.749961981
   0.250000000   0.749961981   0.249961981
   0.248888797   0.749575925   0.749575925
   0.748888797   0.249575925   0.249575925
   0.750000000   0.249961981   0.749961981
   0.750000000   0.749961981   0.249961981
   0.751111203   0.749575925   0.749575925
   0.251111203   0.000424075   0.000424075
   0.250000000   0.000038019   0.500038019
   0.250000000   0.500038019   0.000038019
   0.248888797   0.500424075   0.500424075
   0.748888797   0.000424075   0.000424075
   0.750000000   0.000038019   0.500038019
   0.750000000   0.500038019   0.000038019
   0.751111203   0.500424075   0.500424075
   0.000000000   0.250524833   0.999475167
   0.000000000   0.250141507   0.500608576
   0.000000000   0.749391424   0.999858493
   0.000000000   0.750131439   0.499868561
   0.500000000   0.250131439   0.999868561
   0.500000000   0.249391424   0.499858493
   0.500000000   0.750141507   0.000608576
   0.500000000   0.750524833   0.499475167
   0.000000000   0.999475167   0.250524833
   0.000000000   0.999858493   0.749391424
   0.000000000   0.500608576   0.250141507
   0.000000000   0.499868561   0.750131439
   0.500000000   0.999868561   0.250131439
   0.500000000   0.000608576   0.750141507
   0.500000000   0.499858493   0.249391424
   0.500000000   0.499475167   0.750524833
Mg28Ni4O32
   1.00000000
   8.497418759  -0.000000000   0.000000000
  -0.000000000   8.499145858  -0.001356119
   0.000000000  -0.001356119   8.499145858
  Ni  Mg  O
  4  28  32
Direct configuration=     10
   0.000000000   0.000659922   0.000659922
   0.500000000   0.500659922   0.500659922
   0.000000000   0.249340078   0.249340078
   0.500000000   0.749340078   0.749340078
   0.000000000   0.000426081   0.499692271
   0.000000000   0.499692271   0.000426081
   0.000000000   0.499517818   0.499517818
   0.500000000   0.999517818   0.999517818
   0.500000000   0.999692271   0.500426081
   0.500000000   0.500426081   0.999692271
   0.000000000   0.249573919   0.750307729
   0.000000000   0.750307729   0.249573919
   0.000000000   0.750482182   0.750482182
   0.500000000   0.250482182   0.250482182
   0.500000000   0.250307729   0.749573919
   0.500000000   0.749573919   0.250307729
   0.250071214   0.000251602   0.249748398
   0.250000000   0.999688409   0.750311591
   0.250000000   0.499688409   0.250311591
   0.249928786   0.500251602   0.749748398
   0.749928786   0.000251602   0.249748398
   0.750000000   0.999688409   0.750311591
   0.750000000   0.499688409   0.250311591
   0.750071214   0.500251602   0.749748398
   0.250071214   0.249748398   0.000251602
   0.250000000   0.250311591   0.499688409
   0.250000000   0.750311591   0.999688409
   0.249928786   0.749748398   0.500251602
   0.749928786   0.249748398   0.000251602
   0.750000000   0.250311591   0.499688409
   0.750000000   0.750311591   0.999688409
   0.750071214   0.749748398   0.500251602
   0.250867419   0.249702582   0.249702582
   0.250000000   0.249989507   0.749989507
   0.250000000   0.749989507   0.249989507
   0.249132581   0.749702582   0.749702582
   0.749132581   0.249702582   0.249702582
   0.750000000   0.249989507   0.749989507
   0.750000000   0.749989507   0.249989507
   0.750867419   0.749702582   0.749702582
   0.250867419   0.000297418   0.000297418
   0.250000000   0.000010493   0.500010493
   0.250000000   0.500010493   0.000010493
   0.249132581   0.500297418   0.500297418
   0.749132581   0.000297418   0.000297418
   0.750000000   0.000010493   0.500010493
   0.750000000   0.500010493   0.000010493
   0.750867419   0.500297418   0.500297418
   0.000000000   0.250414095   0.999585905
   0.000000000   0.250011793   0.500509007
   0.000000000   0.749490993   0.999988207
   0.000000000   0.750119195   0.499880805
   0.500000000   0.250119195   0.999880805
   0.500000000   0.249490993   0.499988207
   0.500000000   0.750011793   0.000509007
   0.500000000   0.750414095   0.499585905
   0.000000000   0.999585905   0.250414095
   0.000000000   0.999988207   0.749490993
   0.000000000   0.500509007   0.250011793
   0.000000000   0.499880805   0.750119195
   0.500000000   0.999880805   0.250119195
   0.500000000   0.000509007   0.750011793
   0.500000000   0.499988207   0.249490993
   0.500000000   0.499585905   0.750414095
Mg28Ni4O32
   1.00000000
   8.498254906  -0.000000000   0.000000000
  -0.000000000   8.500014402  -0.001386847
   0.000000000  -0.001386847   8.500014402
  Ni  Mg  O
  4  28  32
Direct configuration=     11
   0.000000000   0.000653252   0.000653252
   0.500000000   0.500653252   0.500653252
   0.000000000   0.249346748   0.249346748
   0.500000000   0.749346748   0.749346748