Mg28Ni4O32
   1.00000000
   8.440355908   0.000000000  -0.000000000
   0.000000000   8.440355908   0.000000000
  -0.000000000   0.000000000   8.440332839
  Ni  Mg  O
  4  28  32
Direct configuration=     1
   0.000042130   0.000042130   0.000000000
   0.000042130   0.249957870   0.250000000
   0.249957870   0.000042130   0.750000000
   0.249957870   0.249957870   0.500000000
   0.000186161   0.000186161   0.500000000
   0.999997373   0.499929714   0.000074443
   0.000039252   0.499825528   0.499902261
   0.499929714   0.999997373   0.999925557
   0.499825528   0.000039252   0.500097739
   0.500023059   0.500023059   0.000000000
   0.499972642   0.499972642   0.500000000
   0.000186161   0.249813839   0.750000000
   0.999997373   0.750070286   0.249925557
   0.000039252   0.750174472   0.750097739
   0.499929714   0.250002627   0.250074443
   0.499825528   0.249960748   0.749902261
   0.500023059   0.749976941   0.250000000
   0.499972642   0.750027358   0.750000000
   0.249813839   0.000186161   0.250000000
   0.249960748   0.499825528   0.250097739
   0.250002627   0.499929714   0.749925557
   0.750174472   0.000039252   0.249902261
   0.750070286   0.999997373   0.750074443
   0.750027358   0.499972642   0.250000000
   0.749976941   0.500023059   0.750000000
   0.249813839   0.249813839   0.000000000
   0.249960748   0.750174472   0.999902261
   0.250002627   0.750070286   0.500074443
   0.750174472   0.249960748   0.000097739
   0.750070286   0.250002627   0.499925557
   0.750027358   0.750027358   0.000000000
   0.749976941   0.749976941   0.500000000
   0.250104897   0.249929255   0.249872095
   0.249929255   0.250104897   0.750127905
   0.249909421   0.750042763   0.250064539
   0.249926227   0.749861500   0.749979316
   0.749861500   0.249926227   0.250020684
   0.750042763   0.249909421   0.749935461
   0.750084573   0.750025233   0.249996246
   0.750025233   0.750084573   0.750003754
   0.250104897   0.000070745   0.000127905
   0.249929255   0.999895103   0.499872095
   0.249909421   0.499957237   0.999935461
   0.249926227   0.500138500   0.500020684
   0.749861500   0.000073773   0.999979316
   0.750042763   0.000090579   0.500064539
   0.750084573   0.499974767   0.000003754
   0.750025233   0.499915427   0.499996246
   0.000070745   0.250104897   0.999872095
   0.999895103   0.249929255   0.500127905
   0.000073773   0.749861500   0.000020684
   0.000090579   0.750042763   0.499935461
   0.499957237   0.249909421   0.000064539
   0.500138500   0.249926227   0.499979316
   0.499974767   0.750084573   0.999996246
   0.499915427   0.750025233   0.500003754
   0.000070745   0.999895103   0.250127905
   0.999895103   0.000070745   0.749872095
   0.000073773   0.500138500   0.249979316
   0.000090579   0.499957237   0.750064539
   0.499957237   0.000090579   0.249935461
   0.500138500   0.000073773   0.750020684
   0.499974767   0.499915427   0.250003754
   0.499915427   0.499974767   0.749996246
Mg28Ni4O32
   1.00000000
   8.442432993   0.000000000   0.000000000
   0.000000000   8.442432993  -0.000000000
   0.000000000  -0.000000000   8.442276057
  Ni  Mg  O
  4  28  32
Direct configuration=     2
   0.000244893   0.000244893   0.000000000
   0.000244893   0.249755107   0.250000000
   0.249755107   0.000244893   0.750000000
   0.249755107   0.249755107   0.500000000
   0.001090771   0.001090771   0.500000000
   0.000062126   0.499585400   0.000403360
   0.000249745   0.498987954   0.499456748
   0.499585400   0.000062126   0.999596640
   0.498987954   0.000249745   0.500543252
   0.500062284   0.500062284   0.000000000
   0.499820160   0.499820160   0.500000000
   0.001090771   0.248909229   0.750000000
   0.000062126   0.750414600   0.249596640
   0.000249745   0.751012046   0.750543252
   0.499585400   0.249937874   0.250403360
   0.498987954   0.249750255   0.749456748
   0.500062284   0.749937716   0.250000000
   0.499820160   0.750179840   0.750000000
   0.248909229   0.001090771   0.250000000
   0.249750255   0.498987954   0.250543252
   0.249937874   0.499585400   0.749596640
   0.751012046   0.000249745   0.249456748
   0.750414600   0.000062126   0.750403360
   0.750179840   0.499820160   0.250000000
   0.749937716   0.500062284   0.750000000
   0.248909229   0.248909229   0.000000000
   0.249750255   0.751012046   0.999456748
   0.249937874   0.750414600   0.500403360
   0.751012046   0.249750255   0.000543252
   0.750414600   0.249937874   0.499596640
   0.750179840   0.750179840   0.000000000
   0.749937716   0.749937716   0.500000000
   0.250551410   0.249575242   0.249281826
   0.249575242   0.250551410   0.750718174
   0.249482352   0.750263328   0.250354460
   0.249568772   0.749262560   0.749900322
   0.749262560   0.249568772   0.250099678
   0.750263328   0.249482352   0.749645540
   0.750494169   0.750144257   0.249954766
   0.750144257   0.750494169   0.750045234
   0.250551410   0.000424758   0.000718174
   0.249575242   0.999448590   0.499281826
   0.249482352   0.499736672   0.999645540
   0.249568772   0.500737440   0.500099678
   0.749262560   0.000431228   0.999900322
   0.750263328   0.000517648   0.500354460
   0.750494169   0.499855743   0.000045234
   0.750144257   0.499505831   0.499954766
   0.000424758   0.250551410   0.999281826
   0.999448590   0.249575242   0.500718174
   0.000431228   0.749262560   0.000099678
   0.000517648   0.750263328   0.499645540
   0.499736672   0.249482352   0.000354460
   0.500737440   0.249568772   0.499900322
   0.499855743   0.750494169   0.999954766
   0.499505831   0.750144257   0.500045234
   0.000424758   0.999448590   0.250718174
   0.999448590   0.000424758   0.749281826
   0.000431228   0.500737440   0.249900322
   0.000517648   0.499736672   0.750354460
   0.499736672   0.000517648   0.249645540
   0.500737440   0.000431228   0.750099678
   0.499855743   0.499505831   0.250045234
   0.499505831   0.499855743   0.749954766
Mg28Ni4O32
   1.00000000
   8.443062865  -0.000000000   0.000000000
  -0.000000000   8.443062865  -0.000000000
   0.000000000  -0.000000000   8.442865596
  Ni  Mg  O
  4  28  32
Direct configuration=     3
   0.000269838   0.000269838   0.000000000
   0.000269838   0.249730162   0.250000000
   0.249730162   0.000269838   0.750000000
   0.249730162   0.249730162   0.500000000
   0.001206411   0.001206411   0.500000000
   0.000137253   0.499540713   0.000417417
   0.000291005   0.498886642   0.499424656
   0.499540713   0.000137253   0.999582583
   0.498886642   0.000291005   0.500575344
   0.500004566   0.500004566   0.000000000
   0.499785043   0.499785043   0.500000000
   0.001206411   0.248793589   0.750000000
   0.000137253   0.750459287   0.249582583
   0.000291005   0.751113358   0.750575344
   0.499540713   0.249862747   0.250417417
   0.498886642   0.249708995   0.749424656
   0.500004566   0.749995434   0.250000000
   0.499785043   0.750214957   0.750000000
   0.248793589   0.001206411   0.250000000
   0.249708995   0.498886642   0.250575344
   0.249862747   0.499540713   0.749582583
   0.751113358   0.000291005   0.249424656
   0.750459287   0.000137253   0.750417417
   0.750214957   0.499785043   0.250000000
   0.749995434   0.500004566   0.750000000
   0.248793589   0.248793589   0.000000000
   0.249708995   0.751113358   0.999424656
   0.249862747   0.750459287   0.500417417
   0.751113358   0.249708995   0.000575344
   0.750459287   0.249862747   0.499582583
   0.750214957   0.750214957   0.000000000
   0.749995434   0.749995434   0.500000000
   0.250550126   0.249522906   0.249233934
   0.249522906   0.250550126   0.750766066
   0.249438398   0.750304793   0.250369788
   0.249521135   0.749252205   0.749909091
   0.749252205   0.249521135   0.250090909
   0.750304793   0.249438398   0.749630212
   0.750547460   0.750160587   0.249930199
   0.750160587   0.750547460   0.750069801
   0.250550126   0.000477094   0.000766066
   0.249522906   0.999449874   0.499233934
   0.249438398   0.499695207   0.999630212
   0.249521135   0.500747795   0.500090909
   0.749252205   0.000478865   0.999909091
   0.750304793   0.000561602   0.500369788
   0.750547460   0.499839413   0.000069801
   0.750160587   0.499452540   0.499930199
   0.000477094   0.250550126   0.999233934
   0.999449874   0.249522906   0.500766066
   0.000478865   0.749252205   0.000090909
   0.000561602   0.750304793   0.499630212
   0.499695207   0.249438398   0.000369788
   0.500747795   0.249521135   0.499909091
   0.499839413   0.750547460   0.999930199
   0.499452540   0.750160587   0.500069801
   0.000477094   0.999449874   0.250766066
   0.999449874   0.000477094   0.749233934
   0.000478865   0.500747795   0.249909091
   0.000561602   0.499695207   0.750369788
   0.499695207   0.000561602   0.249630212
   0.500747795   0.000478865   0.750090909
   0.499839413   0.499452540   0.250069801
   0.499452540   0.499839413   0.749930199
Mg28Ni4O32
   1.00000000
   8.450010686   0.000000000   0.000000000
   0.000000000   8.450010686  -0.000000000
   0.000000000  -0.000000000   8.449368840
  Ni  Mg  O
  4  28  32
Direct configuration=     4
   0.000452912   0.000452912   1.000000000
   0.000452912   0.249547088   0.250000000
   0.249547088   0.000452912   0.750000000
   0.249547088   0.249547088   0.500000000
   0.002090108   0.002090108   0.500000000
   0.001009378   0.499204844   0.000399846
   0.000651220   0.498132546   0.499295855
   0.499204844   0.001009378   0.999600154
   0.498132546   0.000651220   0.500704145
   0.499280676   0.499280676   0.000000000
   0.499456920   0.499456920   0.500000000
   0.002090108   0.247909892   0.750000000
   0.001009378   0.750795156   0.249600154
   0.000651220   0.751867454   0.750704145
   0.499204844   0.248990622   0.250399846
   0.498132546   0.249348780   0.749295855
   0.499280676   0.750719324   0.250000000
   0.499456920   0.750543080   0.750000000
   0.247909892   0.002090108   0.250000000
   0.249348780   0.498132546   0.250704145
   0.248990622   0.499204844   0.749600154
   0.751867454   0.000651220   0.249295855
   0.750795156   0.001009378   0.750399846
   0.750543080   0.499456920   0.250000000
   0.750719324   0.499280676   0.750000000
   0.247909892   0.247909892   1.000000000
   0.249348780   0.751867454   0.999295855
   0.248990622   0.750795156   0.500399846
   0.751867454   0.249348780   0.000704145
   0.750795156   0.248990622   0.499600154
   0.750543080   0.750543080   0.000000000
   0.750719324   0.750719324   0.500000000
   0.250257442   0.249092100   0.248997317
   0.249092100   0.250257442   0.751002683
   0.249143925   0.750690625   0.250379995
   0.249128887   0.749492565   0.750060975
   0.749492565   0.249128887   0.249939025
   0.750690625   0.249143925   0.749620005
   0.750972345   0.750316322   0.249662583
   0.750316322   0.750972345   0.750337417
   0.250257442   0.000907900   0.001002683
   0.249092100   0.999742558   0.498997317
   0.249143925   0.499309375   0.999620005
   0.249128887   0.500507435   0.499939025
   0.749492565   0.000871113   0.000060975
   0.750690625   0.000856075   0.500379995
   0.750972345   0.499683678   0.000337417
   0.750316322   0.499027655   0.499662583
   0.000907900   0.250257442   0.998997317
   0.999742558   0.249092100   0.501002683
   0.000871113   0.749492565   0.999939025
   0.000856075   0.750690625   0.499620005
   0.499309375   0.249143925   0.000379995
   0.500507435   0.249128887   0.500060975
   0.499683678   0.750972345   0.999662583
   0.499027655   0.750316322   0.500337417
   0.000907900   0.999742558   0.251002683
   0.999742558   0.000907900   0.748997317
   0.000871113   0.500507435   0.250060975
   0.000856075   0.499309375   0.750379995
   0.499309375   0.000856075   0.249620005
   0.500507435   0.000871113   0.749939025
   0.499683678   0.499027655   0.250337417
   0.499027655   0.499683678   0.749662583
Mg28Ni4O32
   1.00000000
   8.454424808  -0.000000000   0.000000000
  -0.000000000   8.454424808  -0.000000000
   0.000000000  -0.000000000   8.453499193
  Ni  Mg  O
  4  28  32
Direct configuration=     5
   0.000497180   0.000497180   1.000000000
   0.000497180   0.249502820   0.250000000
   0.249502820   0.000497180   0.750000000
   0.249502820   0.249502820   0.500000000
   0.002352599   0.002352599   0.500000000
   0.001496250   0.499117818   0.000299444
   0.000770333   0.497914093   0.499353046
   0.499117818   0.001496250   0.999700556
   0.497914093   0.000770333   0.500646954
   0.498841417   0.498841417   0.000000000
   0.499323265   0.499323265   0.500000000
   0.002352599   0.247647401   0.750000000
   0.001496250   0.750882182   0.249700556
   0.000770333   0.752085907   0.750646954
   0.499117818   0.248503750   0.250299444
   0.497914093   0.249229667   0.749353046
   0.498841417   0.751158583   0.250000000
   0.499323265   0.750676735   0.750000000
   0.247647401   0.002352599   0.250000000
   0.249229667   0.497914093   0.250646954
   0.248503750   0.499117818   0.749700556
   0.752085907   0.000770333   0.249353046
   0.750882182   0.001496250   0.750299444
   0.750676735   0.499323265   0.250000000
   0.751158583   0.498841417   0.750000000
   0.247647401   0.247647401   1.000000000
   0.249229667   0.752085907   0.999353046
   0.248503750   0.750882182   0.500299444
   0.752085907   0.249229667   0.000646954
   0.750882182   0.248503750   0.499700556
   0.750676735   0.750676735   0.000000000
   0.751158583   0.751158583   0.500000000
   0.249929315   0.248942723   0.249032434
   0.248942723   0.249929315   0.750967566
   0.249082526   0.750870784   0.250290923
   0.248969428   0.749836726   0.750170594
   0.749836726   0.248969428   0.249829406
   0.750870784   0.249082526   0.749709077
   0.751129689   0.750415397   0.249529175
   0.750415397   0.751129689   0.750470825
   0.249929315   0.001057277   0.000967566
   0.248942723   0.000070685   0.499032434
   0.249082526   0.499129216   0.999709077
   0.248969428   0.500163274   0.499829406
   0.749836726   0.001030572   0.000170594
   0.750870784   0.000917474   0.500290923
   0.751129689   0.499584603   0.000470825
   0.750415397   0.498870311   0.499529175
   0.001057277   0.249929315   0.999032434
   0.000070685   0.248942723   0.500967566
   0.001030572   0.749836726   0.999829406
   0.000917474   0.750870784   0.499709077
   0.499129216   0.249082526   0.000290923
   0.500163274   0.248969428   0.500170594
   0.499584603   0.751129689   0.999529175
   0.498870311   0.750415397   0.500470825
   0.001057277   0.000070685   0.250967566
   0.000070685   0.001057277   0.749032434
   0.001030572   0.500163274   0.250170594
   0.000917474   0.499129216   0.750290923
   0.499129216   0.000917474   0.249709077
   0.500163274   0.001030572   0.749829406
   0.499584603   0.498870311   0.250470825
   0.498870311   0.499584603   0.749529175
Mg28Ni4O32
   1.00000000
   8.459692690  -0.000000000   0.000000000
  -0.000000000   8.459692690  -0.000000000
   0.000000000  -0.000000000   8.458424677
  Ni  Mg  O
  4  28  32
Direct configuration=     6
   0.000483159   0.000483159   1.000000000
   0.000483159   0.249516841   0.250000000
   0.249516841   0.000483159   0.750000000
   0.249516841   0.249516841   0.500000000
   0.002394626   0.002394626   0.500000000
   0.001881016   0.499135518   0.000156177
   0.000768679   0.497871539   0.499501618
   0.499135518   0.001881016   0.999843823
   0.497871539   0.000768679   0.500498382
   0.498455395   0.498455395   0.000000000
   0.499268298   0.499268298   0.500000000
   0.002394626   0.247605374   0.750000000
   0.001881016   0.750864482   0.249843823
   0.000768679   0.752128461   0.750498382
   0.499135518   0.248118984   0.250156177
   0.497871539   0.249231321   0.749501618
   0.498455395   0.751544605   0.250000000
   0.499268298   0.750731702   0.750000000
   0.247605374   0.002394626   0.250000000
   0.249231321   0.497871539   0.250498382
   0.248118984   0.499135518   0.749843823
   0.752128461   0.000768679   0.249501618
   0.750864482   0.001881016   0.750156177
   0.750731702   0.499268298   0.250000000
   0.751544605   0.498455395   0.750000000
   0.247605374   0.247605374   1.000000000
   0.249231321   0.752128461   0.999501618
   0.248118984   0.750864482   0.500156177
   0.752128461   0.249231321   0.000498382
   0.750864482   0.248118984   0.499843823
   0.750731702   0.750731702   0.000000000
   0.751544605   0.751544605   0.500000000
   0.249512308   0.248892799   0.249190749
   0.248892799   0.249512308   0.750809251
   0.249098958   0.751007151   0.250137406
   0.248853441   0.750305129   0.750272512
   0.750305129   0.248853441   0.249727488
   0.751007151   0.249098958   0.749862594
   0.751223569   0.750547013   0.249447928
   0.750547013   0.751223569   0.750552072
   0.249512308   0.001107201   0.000809251
   0.248892799   0.000487692   0.499190749
   0.249098958   0.498992849   0.999862594
   0.248853441   0.499694871   0.499727488
   0.750305129   0.001146559   0.000272512
   0.751007151   0.000901042   0.500137406
   0.751223569   0.499452987   0.000552072
   0.750547013   0.498776431   0.499447928
   0.001107201   0.249512308   0.999190749
   0.000487692   0.248892799   0.500809251
   0.001146559   0.750305129   0.999727488
   0.000901042   0.751007151   0.499862594
   0.498992849   0.249098958   0.000137406
   0.499694871   0.248853441   0.500272512
   0.499452987   0.751223569   0.999447928
   0.498776431   0.750547013   0.500552072
   0.001107201   0.000487692   0.250809251
   0.000487692   0.001107201   0.749190749
   0.001146559   0.499694871   0.250272512
   0.000901042   0.498992849   0.750137406
   0.498992849   0.000901042   0.249862594
   0.499694871   0.001146559   0.749727488
   0.499452987   0.498776431   0.250552072
   0.498776431   0.499452987   0.749447928
Mg28Ni4O32
   1.00000000
   8.465180919  -0.000000000   0.000000000
  -0.000000000   8.465180919  -0.000000000
   0.000000000  -0.000000000   8.463550514
  Ni  Mg  O
  4  28  32
Direct configuration=     7
   0.000427544   0.000427544   1.000000000
   0.000427544   0.249572456   0.250000000
   0.249572456   0.000427544   0.750000000
   0.249572456   0.249572456   0.500000000
   0.002268444   0.002268444   0.500000000
   0.002003867   0.499236451   0.000058827
   0.000634990   0.497947922   0.499651128
   0.499236451   0.002003867   0.999941173
   0.497947922   0.000634990   0.500348872
   0.498281528   0.498281528   0.000000000
   0.499314716   0.499314716   0.500000000
   0.002268444   0.247731556   0.750000000
   0.002003867   0.750763549   0.249941173
   0.000634990   0.752052078   0.750348872
   0.499236451   0.247996133   0.250058827
   0.497947922   0.249365010   0.749651128
   0.498281528   0.751718472   0.250000000
   0.499314716   0.750685284   0.750000000
   0.247731556   0.002268444   0.250000000
   0.249365010   0.497947922   0.250348872
   0.247996133   0.499236451   0.749941173
   0.752052078   0.000634990   0.249651128
   0.750763549   0.002003867   0.750058827
   0.750685284   0.499314716   0.250000000
   0.751718472   0.498281528   0.750000000
   0.247731556   0.247731556   0.000000000
   0.249365010   0.752052078   0.999651128
   0.247996133   0.750763549   0.500058827
   0.752052078   0.249365010   0.000348872
   0.750763549   0.247996133   0.499941173
   0.750685284   0.750685284   0.000000000
   0.751718472   0.751718472   0.500000000
   0.249192800   0.248937966   0.249366199
   0.248937966   0.249192800   0.750633801
   0.249146868   0.751069321   0.250000187
   0.248783332   0.750680840   0.750311206
   0.750680840   0.248783332   0.249688794
   0.751069321   0.249146868   0.749999813
   0.751261077   0.750690805   0.249461511
   0.750690805   0.751261077   0.750538489
   0.249192800   0.001062034   0.000633801
   0.248937966   0.000807200   0.499366199
   0.249146868   0.498930679   0.999999813
   0.248783332   0.499319160   0.499688794
   0.750680840   0.001216668   0.000311206
   0.751069321   0.000853132   0.500000187
   0.751261077   0.499309195   0.000538489
   0.750690805   0.498738923   0.499461511
   0.001062034   0.249192800   0.999366199
   0.000807200   0.248937966   0.500633801
   0.001216668   0.750680840   0.999688794
   0.000853132   0.751069321   0.499999813
   0.498930679   0.249146868   0.000000187
   0.499319160   0.248783332   0.500311206
   0.499309195   0.751261077   0.999461511
   0.498738923   0.750690805   0.500538489
   0.001062034   0.000807200   0.250633801
   0.000807200   0.001062034   0.749366199
   0.001216668   0.499319160   0.250311206
   0.000853132   0.498930679   0.750000187
   0.498930679   0.000853132   0.249999813
   0.499319160   0.001216668   0.749688794
   0.499309195   0.498738923   0.250538489
   0.498738923   0.499309195   0.749461511
Mg28Ni4O32
   1.00000000
   8.474710875  -0.000000000   0.000000000
  -0.000000000   8.474710875  -0.000000000
   0.000000000  -0.000000000   8.472442355
  Ni  Mg  O
  4  28  32
Direct configuration=     8
   0.000320380   0.000320380   0.000000000
   0.000320380   0.249679620   0.250000000
   0.249679620   0.000320380   0.750000000
   0.249679620   0.249679620   0.500000000
   0.001978040   0.001978040   0.500000000
   0.001873032   0.499451096   0.000011074
   0.000303799   0.498113090   0.499819975
   0.499451096   0.001873032   0.999988926
   0.498113090   0.000303799   0.500180025
   0.498290842   0.498290842   0.000000000
   0.499486876   0.499486876   0.500000000
   0.001978040   0.248021960   0.750000000
   0.001873032   0.750548904   0.249988926
   0.000303799   0.751886910   0.750180025
   0.499451096   0.248126968   0.250011074
   0.498113090   0.249696201   0.749819975
   0.498290842   0.751709158   0.250000000
   0.499486876   0.750513124   0.750000000
   0.248021960   0.001978040   0.250000000
   0.249696201   0.498113090   0.250180025
   0.248126968   0.499451096   0.749988926
   0.751886910   0.000303799   0.249819975
   0.750548904   0.001873032   0.750011074
   0.750513124   0.499486876   0.250000000
   0.751709158   0.498290842   0.750000000
   0.248021960   0.248021960   0.000000000
   0.249696201   0.751886910   0.999819975
   0.248126968   0.750548904   0.500011074
   0.751886910   0.249696201   0.000180025
   0.750548904   0.248126968   0.499988926
   0.750513124   0.750513124   0.000000000
   0.751709158   0.751709158   0.500000000
   0.248901774   0.249082029   0.249576739
   0.249082029   0.248901774   0.750423261
   0.249211073   0.751085909   0.249861626
   0.248711251   0.751038675   0.750273149
   0.751038675   0.248711251   0.249726851
   0.751085909   0.249211073   0.750138374
   0.751281300   0.750910185   0.249594271
   0.750910185   0.751281300   0.750405729
   0.248901774   0.000917971   0.000423261
   0.249082029   0.001098226   0.499576739
   0.249211073   0.498914091   0.000138374
   0.248711251   0.498961325   0.499726851
   0.751038675   0.001288749   0.000273149
   0.751085909   0.000788927   0.499861626
   0.751281300   0.499089815   0.000405729
   0.750910185   0.498718700   0.499594271
   0.000917971   0.248901774   0.999576739
   0.001098226   0.249082029   0.500423261
   0.001288749   0.751038675   0.999726851
   0.000788927   0.751085909   0.500138374
   0.498914091   0.249211073   0.999861626
   0.498961325   0.248711251   0.500273149
   0.499089815   0.751281300   0.999594271
   0.498718700   0.750910185   0.500405729
   0.000917971   0.001098226   0.250423261
   0.001098226   0.000917971   0.749576739
   0.001288749   0.498961325   0.250273149
   0.000788927   0.498914091   0.749861626
   0.498914091   0.000788927   0.250138374
   0.498961325   0.001288749   0.749726851
   0.499089815   0.498718700   0.250405729
   0.498718700   0.499089815   0.749594271
Mg28Ni4O32
   1.00000000
   8.485954873  -0.000000000   0.000000000
  -0.000000000   8.485954873  -0.000000000
   0.000000000  -0.000000000   8.482921222
  Ni  Mg  O
  4  28  32
Direct configuration=     9
   0.000215221   0.000215221   0.000000000
   0.000215221   0.249784779   0.250000000
   0.249784779   0.000215221   0.750000000
   0.249784779   0.249784779   0.500000000
   0.001649625   0.001649625   0.500000000
   0.001413644   0.499695652   0.000096524
   0.999891496   0.498279951   0.499880467
   0.499695652   0.001413644   0.999903476
   0.498279951   0.999891496   0.500119533
   0.498605492   0.498605492   0.000000000
   0.499737541   0.499737541   0.500000000
   0.001649625   0.248350375   0.750000000
   0.001413644   0.750304348   0.249903476
   0.999891496   0.751720049   0.750119533
   0.499695652   0.248586356   0.250096524
   0.498279951   0.250108504   0.749880467
   0.498605492   0.751394508   0.250000000
   0.499737541   0.750262459   0.750000000
   0.248350375   0.001649625   0.250000000
   0.250108504   0.498279951   0.250119533
   0.248586356   0.499695652   0.749903476
   0.751720049   0.999891496   0.249880467
   0.750304348   0.001413644   0.750096524
   0.750262459   0.499737541   0.250000000
   0.751394508   0.498605492   0.750000000
   0.248350375   0.248350375   0.000000000
   0.250108504   0.751720049   0.999880467
   0.248586356   0.750304348   0.500096524
   0.751720049   0.250108504   0.000119533
   0.750304348   0.248586356   0.499903476
   0.750262459   0.750262459   0.000000000
   0.751394508   0.751394508   0.500000000
   0.248898037   0.249280483   0.249670921
   0.249280483   0.248898037   0.750329079
   0.249247531   0.751008469   0.249847375
   0.248698052   0.751066384   0.750117149
   0.751066384   0.248698052   0.249882851
   0.751008469   0.249247531   0.750152625
   0.751254958   0.751072006   0.249832609
   0.751072006   0.751254958   0.750167391
   0.248898037   0.000719517   0.000329079
   0.249280483   0.001101963   0.499670921
   0.249247531   0.498991531   0.000152625
   0.248698052   0.498933616   0.499882851
   0.751066384   0.001301948   0.000117149
   0.751008469   0.000752469   0.499847375
   0.751254958   0.498927994   0.000167391
   0.751072006   0.498745042   0.499832609
   0.000719517   0.248898037   0.999670921
   0.001101963   0.249280483   0.500329079
   0.001301948   0.751066384   0.999882851
   0.000752469   0.751008469   0.500152625
   0.498991531   0.249247531   0.999847375
   0.498933616   0.248698052   0.500117149
   0.498927994   0.751254958   0.999832609
   0.498745042   0.751072006   0.500167391
   0.000719517   0.001101963   0.250329079
   0.001101963   0.000719517   0.749670921
   0.001301948   0.498933616   0.250117149
   0.000752469   0.498991531   0.749847375
   0.498991531   0.000752469   0.250152625
   0.498933616   0.001301948   0.749882851
   0.498927994   0.498745042   0.250167391
   0.498745042   0.498927994   0.749832609
Mg28Ni4O32
   1.00000000
   8.494883857  -0.000000000   0.000000000
  -0.000000000   8.494883857  -0.000000000
   0.000000000  -0.000000000   8.491225632
  Ni  Mg  O
  4  28  32
Direct configuration=     10
   0.000171716   0.000171716   0.000000000
   0.000171716   0.249828284   0.250000000
   0.249828284   0.000171716   0.750000000
   0.249828284   0.249828284   0.500000000
   0.001431836   0.001431836   0.500000000
   0.000834542   0.499849164   0.000281574
   0.999627202   0.498382807   0.499787959
   0.499849164   0.000834542   0.999718426
   0.498382807   0.999627202   0.500212041
   0.499100511   0.499100511   0.000000000
   0.499934884   0.499934884   0.500000000
   0.001431836   0.248568164   0.750000000
   0.000834542   0.750150836   0.249718426
   0.999627202   0.751617193   0.750212041
   0.499849164   0.249165458   0.250281574
   0.498382807   0.250372798   0.749787959
   0.499100511   0.750899489   0.250000000
   0.499934884   0.750065116   0.750000000
   0.248568164   0.001431836   0.250000000
   0.250372798   0.498382807   0.250212041
   0.249165458   0.499849164   0.749718426
   0.751617193   0.999627202   0.249787959
   0.750150836   0.000834542   0.750281574
   0.750065116   0.499934884   0.250000000
   0.750899489   0.499100511   0.750000000
   0.248568164   0.248568164   0.000000000
   0.250372798   0.751617193   0.999787959
   0.249165458   0.750150836   0.500281574
   0.751617193   0.250372798   0.000212041
   0.750150836   0.249165458   0.499718426
   0.750065116   0.750065116   0.000000000
   0.750899489   0.750899489   0.500000000
   0.249240167   0.249445603   0.249589618
   0.249445603   0.249240167   0.750410382
   0.249254218   0.750840343   0.249998782
   0.248804377   0.750682568   0.749901503
   0.750682568   0.248804377   0.250098497
   0.750840343   0.249254218   0.750001218
   0.751152538   0.751026853   0.250058695
   0.751026853   0.751152538   0.749941305
   0.249240167   0.000554397   0.000410382
   0.249445603   0.000759833   0.499589618
   0.249254218   0.499159657   0.000001218
   0.248804377   0.499317432   0.500098497
   0.750682568   0.001195623   0.999901503
   0.750840343   0.000745782   0.499998782
   0.751152538   0.498973147   0.999941305
   0.751026853   0.498847462   0.500058695
   0.000554397   0.249240167   0.999589618
   0.000759833   0.249445603   0.500410382
   0.001195623   0.750682568   0.000098497
   0.000745782   0.750840343   0.500001218
   0.499159657   0.249254218   0.999998782
   0.499317432   0.248804377   0.499901503
   0.498973147   0.751152538   0.000058695
   0.498847462   0.751026853   0.499941305
   0.000554397   0.000759833   0.250410382
   0.000759833   0.000554397   0.749589618
   0.001195623   0.499317432   0.249901503
   0.000745782   0.499159657   0.749998782
   0.499159657   0.000745782   0.250001218
   0.499317432   0.001195623   0.750098497
   0.498973147   0.498847462   0.249941305
   0.498847462   0.498973147   0.750058695
Mg28Ni4O32
   1.00000000
   8.498700379  -0.000000000   0.000000000
  -0.000000000   8.498700379  -0.000000000
   0.000000000  -0.000000000   8.494753824
  Ni  Mg  O
  4  28  32
Direct configuration=     11
   0.000196788   0.000196788   0.000000000
   0.000196788   0.249803212   0.250000000
   0.249803212   0.000196788   0.750000000
   0.249803212   0.249803212   0.500000000