Mg28Ni4O32
   1.00000000
   8.440370010  -0.000000000   0.000000000
  -0.000000000   8.440341173   0.000000000
   0.000000000   0.000000000   8.440341173
  Ni  Mg  O
  4  28  32
Direct configuration=     1
   0.000000000   0.000000000   0.000000000
   0.000000000   0.000000000   0.500000000
   0.000000000   0.500000000   0.000000000
   0.000000000   0.500000000   0.500000000
   0.500000000   0.000000000   0.000000000
   0.500000000   0.000000000   0.500000000
   0.500000000   0.500000000   0.000000000
   0.500000000   0.500000000   0.500000000
   0.000000000   0.250000000   0.250000000
   0.000000000   0.250000000   0.750000000
   0.000000000   0.750000000   0.250000000
   0.000000000   0.750000000   0.750000000
   0.500000000   0.250000000   0.250000000
   0.500000000   0.250000000   0.750000000
   0.500000000   0.750000000   0.250000000
   0.500000000   0.750000000   0.750000000
   0.249782476   0.000000000   0.250000000
   0.249782476   0.000000000   0.750000000
   0.249782476   0.500000000   0.250000000
   0.249782476   0.500000000   0.750000000
   0.750217524   0.000000000   0.250000000
   0.750217524   0.000000000   0.750000000
   0.750217524   0.500000000   0.250000000
   0.750217524   0.500000000   0.750000000
   0.249782476   0.250000000   0.000000000
   0.249782476   0.250000000   0.500000000
   0.249782476   0.750000000   0.000000000
   0.249782476   0.750000000   0.500000000
   0.750217524   0.250000000   0.000000000
   0.750217524   0.250000000   0.500000000
   0.750217524   0.750000000   0.000000000
   0.750217524   0.750000000   0.500000000
   0.250023557   0.250000000   0.250000000
   0.250023557   0.250000000   0.750000000
   0.250023557   0.750000000   0.250000000
   0.250023557   0.750000000   0.750000000
   0.749976443   0.250000000   0.250000000
   0.749976443   0.250000000   0.750000000
   0.749976443   0.750000000   0.250000000
   0.749976443   0.750000000   0.750000000
   0.250144731   0.000000000   0.000000000
   0.250144731   0.000000000   0.500000000
   0.250144731   0.500000000   0.000000000
   0.250144731   0.500000000   0.500000000
   0.749855269   0.000000000   0.000000000
   0.749855269   0.000000000   0.500000000
   0.749855269   0.500000000   0.000000000
   0.749855269   0.500000000   0.500000000
   0.000000000   0.250000000   0.000000000
   0.000000000   0.250000000   0.500000000
   0.000000000   0.750000000   0.000000000
   0.000000000   0.750000000   0.500000000
   0.500000000   0.250000000   0.000000000
   0.500000000   0.250000000   0.500000000
   0.500000000   0.750000000   0.000000000
   0.500000000   0.750000000   0.500000000
   0.000000000   0.000000000   0.250000000
   0.000000000   0.000000000   0.750000000
   0.000000000   0.500000000   0.250000000
   0.000000000   0.500000000   0.750000000
   0.500000000   0.000000000   0.250000000
   0.500000000   0.000000000   0.750000000
   0.500000000   0.500000000   0.250000000
   0.500000000   0.500000000   0.750000000
Mg28Ni4O32
   1.00000000
   8.442889940  -0.000000000  -0.000000000
  -0.000000000   8.442666829   0.000000000
  -0.000000000   0.000000000   8.442666829
  Ni  Mg  O
  4  28  32
Direct configuration=     2
   0.000000000   0.000000000   0.000000000
   0.000000000   0.000000000   0.500000000
   0.000000000   0.500000000   0.000000000
   0.000000000   0.500000000   0.500000000
   0.500000000   0.000000000   0.000000000
   0.500000000   0.000000000   0.500000000
   0.500000000   0.500000000   0.000000000
   0.500000000   0.500000000   0.500000000
   0.000000000   0.250000000   0.250000000
   0.000000000   0.250000000   0.750000000
   0.000000000   0.750000000   0.250000000
   0.000000000   0.750000000   0.750000000
   0.500000000   0.250000000   0.250000000
   0.500000000   0.250000000   0.750000000
   0.500000000   0.750000000   0.250000000
   0.500000000   0.750000000   0.750000000
   0.248552646   0.000000000   0.250000000
   0.248552646   0.000000000   0.750000000
   0.248552646   0.500000000   0.250000000
   0.248552646   0.500000000   0.750000000
   0.751447354   0.000000000   0.250000000
   0.751447354   0.000000000   0.750000000
   0.751447354   0.500000000   0.250000000
   0.751447354   0.500000000   0.750000000
   0.248552646   0.250000000   0.000000000
   0.248552646   0.250000000   0.500000000
   0.248552646   0.750000000   0.000000000
   0.248552646   0.750000000   0.500000000
   0.751447354   0.250000000   0.000000000
   0.751447354   0.250000000   0.500000000
   0.751447354   0.750000000   0.000000000
   0.751447354   0.750000000   0.500000000
   0.250035312   0.250000000   0.250000000
   0.250035312   0.250000000   0.750000000
   0.250035312   0.750000000   0.250000000
   0.250035312   0.750000000   0.750000000
   0.749964688   0.250000000   0.250000000
   0.749964688   0.250000000   0.750000000
   0.749964688   0.750000000   0.250000000
   0.749964688   0.750000000   0.750000000
   0.250904684   0.000000000   0.000000000
   0.250904684   0.000000000   0.500000000
   0.250904684   0.500000000   0.000000000
   0.250904684   0.500000000   0.500000000
   0.749095316   0.000000000   0.000000000
   0.749095316   0.000000000   0.500000000
   0.749095316   0.500000000   0.000000000
   0.749095316   0.500000000   0.500000000
   0.000000000   0.250000000   0.000000000
   0.000000000   0.250000000   0.500000000
   0.000000000   0.750000000   0.000000000
   0.000000000   0.750000000   0.500000000
   0.500000000   0.250000000   0.000000000
   0.500000000   0.250000000   0.500000000
   0.500000000   0.750000000   0.000000000
   0.500000000   0.750000000   0.500000000
   0.000000000   0.000000000   0.250000000
   0.000000000   0.000000000   0.750000000
   0.000000000   0.500000000   0.250000000
   0.000000000   0.500000000   0.750000000
   0.500000000   0.000000000   0.250000000
   0.500000000   0.000000000   0.750000000
   0.500000000   0.500000000   0.250000000
   0.500000000   0.500000000   0.750000000
Mg28Ni4O32
   1.00000000
   8.443649544  -0.000000000  -0.000000000
  -0.000000000   8.443367731   0.000000000
  -0.000000000   0.000000000   8.443367731
  Ni  Mg  O
  4  28  32
Direct configuration=     3
   0.000000000   0.000000000   0.000000000
   0.000000000   0.000000000   0.500000000
   0.000000000   0.500000000   0.000000000
   0.000000000   0.500000000   0.500000000
   0.500000000   0.000000000   0.000000000
   0.500000000   0.000000000   0.500000000
   0.500000000   0.500000000   0.000000000
   0.500000000   0.500000000   0.500000000
   0.000000000   0.250000000   0.250000000
   0.000000000   0.250000000   0.750000000
   0.000000000   0.750000000   0.250000000
   0.000000000   0.750000000   0.750000000
   0.500000000   0.250000000   0.250000000
   0.500000000   0.250000000   0.750000000
   0.500000000   0.750000000   0.250000000
   0.500000000   0.750000000   0.750000000
   0.248402421   0.000000000   0.250000000
   0.248402421   0.000000000   0.750000000
   0.248402421   0.500000000   0.250000000
   0.248402421   0.500000000   0.750000000
   0.751597579   0.000000000   0.250000000
   0.751597579   0.000000000   0.750000000
   0.751597579   0.500000000   0.250000000
   0.751597579   0.500000000   0.750000000
   0.248402421   0.250000000   0.000000000
   0.248402421   0.250000000   0.500000000
   0.248402421   0.750000000   0.000000000
   0.248402421   0.750000000   0.500000000
   0.751597579   0.250000000   0.000000000
   0.751597579   0.250000000   0.500000000
   0.751597579   0.750000000   0.000000000
   0.751597579   0.750000000   0.500000000
   0.249926813   0.250000000   0.250000000
   0.249926813   0.250000000   0.750000000
   0.249926813   0.750000000   0.250000000
   0.249926813   0.750000000   0.750000000
   0.750073187   0.250000000   0.250000000
   0.750073187   0.250000000   0.750000000
   0.750073187   0.750000000   0.250000000
   0.750073187   0.750000000   0.750000000
   0.250941365   0.000000000   0.000000000
   0.250941365   0.000000000   0.500000000
   0.250941365   0.500000000   0.000000000
   0.250941365   0.500000000   0.500000000
   0.749058635   0.000000000   0.000000000
   0.749058635   0.000000000   0.500000000
   0.749058635   0.500000000   0.000000000
   0.749058635   0.500000000   0.500000000
   0.000000000   0.250000000   0.000000000
   0.000000000   0.250000000   0.500000000
   0.000000000   0.750000000   0.000000000
   0.000000000   0.750000000   0.500000000
   0.500000000   0.250000000   0.000000000
   0.500000000   0.250000000   0.500000000
   0.500000000   0.750000000   0.000000000
   0.500000000   0.750000000   0.500000000
   0.000000000   0.000000000   0.250000000
   0.000000000   0.000000000   0.750000000
   0.000000000   0.500000000   0.250000000
   0.000000000   0.500000000   0.750000000
   0.500000000   0.000000000   0.250000000
   0.500000000   0.000000000   0.750000000
   0.500000000   0.500000000   0.250000000
   0.500000000   0.500000000   0.750000000
Mg28Ni4O32
   1.00000000
   8.451686923  -0.000000000  -0.000000000
  -0.000000000   8.450780998   0.000000000
  -0.000000000   0.000000000   8.450780998
  Ni  Mg  O
  4  28  32
Direct configuration=     4
   0.000000000   0.000000000   0.000000000
   0.000000000   0.000000000   0.500000000
   0.000000000   0.500000000   0.000000000
   0.000000000   0.500000000   0.500000000
   0.500000000   0.000000000   0.000000000
   0.500000000   0.000000000   0.500000000
   0.500000000   0.500000000   0.000000000
   0.500000000   0.500000000   0.500000000
   0.000000000   0.250000000   0.250000000
   0.000000000   0.250000000   0.750000000
   0.000000000   0.750000000   0.250000000
   0.000000000   0.750000000   0.750000000
   0.500000000   0.250000000   0.250000000
   0.500000000   0.250000000   0.750000000
   0.500000000   0.750000000   0.250000000
   0.500000000   0.750000000   0.750000000
   0.247380357   0.000000000   0.250000000
   0.247380357   0.000000000   0.750000000
   0.247380357   0.500000000   0.250000000
   0.247380357   0.500000000   0.750000000
   0.752619643   0.000000000   0.250000000
   0.752619643   0.000000000   0.750000000
   0.752619643   0.500000000   0.250000000
   0.752619643   0.500000000   0.750000000
   0.247380357   0.250000000   0.000000000
   0.247380357   0.250000000   0.500000000
   0.247380357   0.750000000   0.000000000
   0.247380357   0.750000000   0.500000000
   0.752619643   0.250000000   0.000000000
   0.752619643   0.250000000   0.500000000
   0.752619643   0.750000000   0.000000000
   0.752619643   0.750000000   0.500000000
   0.248616266   0.250000000   0.250000000
   0.248616266   0.250000000   0.750000000
   0.248616266   0.750000000   0.250000000
   0.248616266   0.750000000   0.750000000
   0.751383734   0.250000000   0.250000000
   0.751383734   0.250000000   0.750000000
   0.751383734   0.750000000   0.250000000
   0.751383734   0.750000000   0.750000000
   0.250873894   0.000000000   0.000000000
   0.250873894   0.000000000   0.500000000
   0.250873894   0.500000000   0.000000000
   0.250873894   0.500000000   0.500000000
   0.749126106   0.000000000   0.000000000
   0.749126106   0.000000000   0.500000000
   0.749126106   0.500000000   0.000000000
   0.749126106   0.500000000   0.500000000
   0.000000000   0.250000000   0.000000000
   0.000000000   0.250000000   0.500000000
   0.000000000   0.750000000   0.000000000
   0.000000000   0.750000000   0.500000000
   0.500000000   0.250000000   0.000000000
   0.500000000   0.250000000   0.500000000
   0.500000000   0.750000000   0.000000000
   0.500000000   0.750000000   0.500000000
   0.000000000   0.000000000   0.250000000
   0.000000000   0.000000000   0.750000000
   0.000000000   0.500000000   0.250000000
   0.000000000   0.500000000   0.750000000
   0.500000000   0.000000000   0.250000000
   0.500000000   0.000000000   0.750000000
   0.500000000   0.500000000   0.250000000
   0.500000000   0.500000000   0.750000000
Mg28Ni4O32
   1.00000000
   8.457670908  -0.000000000   0.000000000
  -0.000000000   8.456292759   0.000000000
   0.000000000   0.000000000   8.456292759
  Ni  Mg  O
  4  28  32
Direct configuration=     5
   0.000000000   0.000000000   0.000000000
   0.000000000   0.000000000   0.500000000
   0.000000000   0.500000000   0.000000000
   0.000000000   0.500000000   0.500000000
   0.500000000   0.000000000   0.000000000
   0.500000000   0.000000000   0.500000000
   0.500000000   0.500000000   0.000000000
   0.500000000   0.500000000   0.500000000
   0.000000000   0.250000000   0.250000000
   0.000000000   0.250000000   0.750000000
   0.000000000   0.750000000   0.250000000
   0.000000000   0.750000000   0.750000000
   0.500000000   0.250000000   0.250000000
   0.500000000   0.250000000   0.750000000
   0.500000000   0.750000000   0.250000000
   0.500000000   0.750000000   0.750000000
   0.247067499   0.000000000   0.250000000
   0.247067499   0.000000000   0.750000000
   0.247067499   0.500000000   0.250000000
   0.247067499   0.500000000   0.750000000
   0.752932501   0.000000000   0.250000000
   0.752932501   0.000000000   0.750000000
   0.752932501   0.500000000   0.250000000
   0.752932501   0.500000000   0.750000000
   0.247067499   0.250000000   0.000000000
   0.247067499   0.250000000   0.500000000
   0.247067499   0.750000000   0.000000000
   0.247067499   0.750000000   0.500000000
   0.752932501   0.250000000   0.000000000
   0.752932501   0.250000000   0.500000000
   0.752932501   0.750000000   0.000000000
   0.752932501   0.750000000   0.500000000
   0.247667150   0.250000000   0.250000000
   0.247667150   0.250000000   0.750000000
   0.247667150   0.750000000   0.250000000
   0.247667150   0.750000000   0.750000000
   0.752332850   0.250000000   0.250000000
   0.752332850   0.250000000   0.750000000
   0.752332850   0.750000000   0.250000000
   0.752332850   0.750000000   0.750000000
   0.250515706   0.000000000   0.000000000
   0.250515706   0.000000000   0.500000000
   0.250515706   0.500000000   0.000000000
   0.250515706   0.500000000   0.500000000
   0.749484294   0.000000000   0.000000000
   0.749484294   0.000000000   0.500000000
   0.749484294   0.500000000   0.000000000
   0.749484294   0.500000000   0.500000000
   0.000000000   0.250000000   0.000000000
   0.000000000   0.250000000   0.500000000
   0.000000000   0.750000000   0.000000000
   0.000000000   0.750000000   0.500000000
   0.500000000   0.250000000   0.000000000
   0.500000000   0.250000000   0.500000000
   0.500000000   0.750000000   0.000000000
   0.500000000   0.750000000   0.500000000
   0.000000000   0.000000000   0.250000000
   0.000000000   0.000000000   0.750000000
   0.000000000   0.500000000   0.250000000
   0.000000000   0.500000000   0.750000000
   0.500000000   0.000000000   0.250000000
   0.500000000   0.000000000   0.750000000
   0.500000000   0.500000000   0.250000000
   0.500000000   0.500000000   0.750000000
Mg28Ni4O32
   1.00000000
   8.464271249  -0.000000000   0.000000000
  -0.000000000   8.462357519   0.000000000
   0.000000000   0.000000000   8.462357519
  Ni  Mg  O
  4  28  32
Direct configuration=     6
   0.000000000   0.000000000   0.000000000
   0.000000000   0.000000000   0.500000000
   0.000000000   0.500000000   0.000000000
   0.000000000   0.500000000   0.500000000
   0.500000000   0.000000000   0.000000000
   0.500000000   0.000000000   0.500000000
   0.500000000   0.500000000   0.000000000
   0.500000000   0.500000000   0.500000000
   0.000000000   0.250000000   0.250000000
   0.000000000   0.250000000   0.750000000
   0.000000000   0.750000000   0.250000000
   0.000000000   0.750000000   0.750000000
   0.500000000   0.250000000   0.250000000
   0.500000000   0.250000000   0.750000000
   0.500000000   0.750000000   0.250000000
   0.500000000   0.750000000   0.750000000
   0.247112641   0.000000000   0.250000000
   0.247112641   0.000000000   0.750000000
   0.247112641   0.500000000   0.250000000
   0.247112641   0.500000000   0.750000000
   0.752887359   0.000000000   0.250000000
   0.752887359   0.000000000   0.750000000
   0.752887359   0.500000000   0.250000000
   0.752887359   0.500000000   0.750000000
   0.247112641   0.250000000   0.000000000
   0.247112641   0.250000000   0.500000000
   0.247112641   0.750000000   0.000000000
   0.247112641   0.750000000   0.500000000
   0.752887359   0.250000000   0.000000000
   0.752887359   0.250000000   0.500000000
   0.752887359   0.750000000   0.000000000
   0.752887359   0.750000000   0.500000000
   0.246878938   0.250000000   0.250000000
   0.246878938   0.250000000   0.750000000
   0.246878938   0.750000000   0.250000000
   0.246878938   0.750000000   0.750000000
   0.753121062   0.250000000   0.250000000
   0.753121062   0.250000000   0.750000000
   0.753121062   0.750000000   0.250000000
   0.753121062   0.750000000   0.750000000
   0.249937280   0.000000000   0.000000000
   0.249937280   0.000000000   0.500000000
   0.249937280   0.500000000   0.000000000
   0.249937280   0.500000000   0.500000000
   0.750062720   0.000000000   0.000000000
   0.750062720   0.000000000   0.500000000
   0.750062720   0.500000000   0.000000000
   0.750062720   0.500000000   0.500000000
   0.000000000   0.250000000   0.000000000
   0.000000000   0.250000000   0.500000000
   0.000000000   0.750000000   0.000000000
   0.000000000   0.750000000   0.500000000
   0.500000000   0.250000000   0.000000000
   0.500000000   0.250000000   0.500000000
   0.500000000   0.750000000   0.000000000
   0.500000000   0.750000000   0.500000000
   0.000000000   0.000000000   0.250000000
   0.000000000   0.000000000   0.750000000
   0.000000000   0.500000000   0.250000000
   0.000000000   0.500000000   0.750000000
   0.500000000   0.000000000   0.250000000
   0.500000000   0.000000000   0.750000000
   0.500000000   0.500000000   0.250000000
   0.500000000   0.500000000   0.750000000
Mg28Ni4O32
   1.00000000
   8.470306822   0.000000000   0.000000000
   0.000000000   8.467884630   0.000000000
   0.000000000   0.000000000   8.467884630
  Ni  Mg  O
  4  28  32
Direct configuration=     7
   0.000000000   0.000000000   0.000000000
   0.000000000   0.000000000   0.500000000
   0.000000000   0.500000000   0.000000000
   0.000000000   0.500000000   0.500000000
   0.500000000   0.000000000   0.000000000
   0.500000000   0.000000000   0.500000000
   0.500000000   0.500000000   0.000000000
   0.500000000   0.500000000   0.500000000
   0.000000000   0.250000000   0.250000000
   0.000000000   0.250000000   0.750000000
   0.000000000   0.750000000   0.250000000
   0.000000000   0.750000000   0.750000000
   0.500000000   0.250000000   0.250000000
   0.500000000   0.250000000   0.750000000
   0.500000000   0.750000000   0.250000000
   0.500000000   0.750000000   0.750000000
   0.247380087   0.000000000   0.250000000
   0.247380087   0.000000000   0.750000000
   0.247380087   0.500000000   0.250000000
   0.247380087   0.500000000   0.750000000
   0.752619913   0.000000000   0.250000000
   0.752619913   0.000000000   0.750000000
   0.752619913   0.500000000   0.250000000
   0.752619913   0.500000000   0.750000000
   0.247380087   0.250000000   0.000000000
   0.247380087   0.250000000   0.500000000
   0.247380087   0.750000000   0.000000000
   0.247380087   0.750000000   0.500000000
   0.752619913   0.250000000   0.000000000
   0.752619913   0.250000000   0.500000000
   0.752619913   0.750000000   0.000000000
   0.752619913   0.750000000   0.500000000
   0.246619484   0.250000000   0.250000000
   0.246619484   0.250000000   0.750000000
   0.246619484   0.750000000   0.250000000
   0.246619484   0.750000000   0.750000000
   0.753380516   0.250000000   0.250000000
   0.753380516   0.250000000   0.750000000
   0.753380516   0.750000000   0.250000000
   0.753380516   0.750000000   0.750000000
   0.249424629   0.000000000   0.000000000
   0.249424629   0.000000000   0.500000000
   0.249424629   0.500000000   0.000000000
   0.249424629   0.500000000   0.500000000
   0.750575371   0.000000000   0.000000000
   0.750575371   0.000000000   0.500000000
   0.750575371   0.500000000   0.000000000
   0.750575371   0.500000000   0.500000000
   0.000000000   0.250000000   0.000000000
   0.000000000   0.250000000   0.500000000
   0.000000000   0.750000000   0.000000000
   0.000000000   0.750000000   0.500000000
   0.500000000   0.250000000   0.000000000
   0.500000000   0.250000000   0.500000000
   0.500000000   0.750000000   0.000000000
   0.500000000   0.750000000   0.500000000
   0.000000000   0.000000000   0.250000000
   0.000000000   0.000000000   0.750000000
   0.000000000   0.500000000   0.250000000
   0.000000000   0.500000000   0.750000000
   0.500000000   0.000000000   0.250000000
   0.500000000   0.000000000   0.750000000
   0.500000000   0.500000000   0.250000000
   0.500000000   0.500000000   0.750000000
Mg28Ni4O32
   1.00000000
   8.480647623   0.000000000   0.000000000
   0.000000000   8.477331227   0.000000000
   0.000000000   0.000000000   8.477331227
  Ni  Mg  O
  4  28  32
Direct configuration=     8
   0.000000000   0.000000000   0.000000000
   0.000000000   0.000000000   0.500000000
   0.000000000   0.500000000   0.000000000
   0.000000000   0.500000000   0.500000000
   0.500000000   0.000000000   0.000000000
   0.500000000   0.000000000   0.500000000
   0.500000000   0.500000000   0.000000000
   0.500000000   0.500000000   0.500000000
   0.000000000   0.250000000   0.250000000
   0.000000000   0.250000000   0.750000000
   0.000000000   0.750000000   0.250000000
   0.000000000   0.750000000   0.750000000
   0.500000000   0.250000000   0.250000000
   0.500000000   0.250000000   0.750000000
   0.500000000   0.750000000   0.250000000
   0.500000000   0.750000000   0.750000000
   0.247870648   0.000000000   0.250000000
   0.247870648   0.000000000   0.750000000
   0.247870648   0.500000000   0.250000000
   0.247870648   0.500000000   0.750000000
   0.752129352   0.000000000   0.250000000
   0.752129352   0.000000000   0.750000000
   0.752129352   0.500000000   0.250000000
   0.752129352   0.500000000   0.750000000
   0.247870648   0.250000000   0.000000000
   0.247870648   0.250000000   0.500000000
   0.247870648   0.750000000   0.000000000
   0.247870648   0.750000000   0.500000000
   0.752129352   0.250000000   0.000000000
   0.752129352   0.250000000   0.500000000
   0.752129352   0.750000000   0.000000000
   0.752129352   0.750000000   0.500000000
   0.246841676   0.250000000   0.250000000
   0.246841676   0.250000000   0.750000000
   0.246841676   0.750000000   0.250000000
   0.246841676   0.750000000   0.750000000
   0.753158324   0.250000000   0.250000000
   0.753158324   0.250000000   0.750000000
   0.753158324   0.750000000   0.250000000
   0.753158324   0.750000000   0.750000000
   0.248806485   0.000000000   0.000000000
   0.248806485   0.000000000   0.500000000
   0.248806485   0.500000000   0.000000000
   0.248806485   0.500000000   0.500000000
   0.751193515   0.000000000   0.000000000
   0.751193515   0.000000000   0.500000000
   0.751193515   0.500000000   0.000000000
   0.751193515   0.500000000   0.500000000
   0.000000000   0.250000000   0.000000000
   0.000000000   0.250000000   0.500000000
   0.000000000   0.750000000   0.000000000
   0.000000000   0.750000000   0.500000000
   0.500000000   0.250000000   0.000000000
   0.500000000   0.250000000   0.500000000
   0.500000000   0.750000000   0.000000000
   0.500000000   0.750000000   0.500000000
   0.000000000   0.000000000   0.250000000
   0.000000000   0.000000000   0.750000000
   0.000000000   0.500000000   0.250000000
   0.000000000   0.500000000   0.750000000
   0.500000000   0.000000000   0.250000000
   0.500000000   0.000000000   0.750000000
   0.500000000   0.500000000   0.250000000
   0.500000000   0.500000000   0.750000000
Mg28Ni4O32
   1.00000000
   8.493674277   0.000000000   0.000000000
   0.000000000   8.489208129   0.000000000
   0.000000000   0.000000000   8.489208129
  Ni  Mg  O
  4  28  32
Direct configuration=     9
   0.000000000   0.000000000   0.000000000
   0.000000000   0.000000000   0.500000000
   0.000000000   0.500000000   0.000000000
   0.000000000   0.500000000   0.500000000
   0.500000000   0.000000000   0.000000000
   0.500000000   0.000000000   0.500000000
   0.500000000   0.500000000   0.000000000
   0.500000000   0.500000000   0.500000000
   0.000000000   0.250000000   0.250000000
   0.000000000   0.250000000   0.750000000
   0.000000000   0.750000000   0.250000000
   0.000000000   0.750000000   0.750000000
   0.500000000   0.250000000   0.250000000
   0.500000000   0.250000000   0.750000000
   0.500000000   0.750000000   0.250000000
   0.500000000   0.750000000   0.750000000
   0.248333888   0.000000000   0.250000000
   0.248333888   0.000000000   0.750000000
   0.248333888   0.500000000   0.250000000
   0.248333888   0.500000000   0.750000000
   0.751666112   0.000000000   0.250000000
   0.751666112   0.000000000   0.750000000
   0.751666112   0.500000000   0.250000000
   0.751666112   0.500000000   0.750000000
   0.248333888   0.250000000   0.000000000
   0.248333888   0.250000000   0.500000000
   0.248333888   0.750000000   0.000000000
   0.248333888   0.750000000   0.500000000
   0.751666112   0.250000000   0.000000000
   0.751666112   0.250000000   0.500000000
   0.751666112   0.750000000   0.000000000
   0.751666112   0.750000000   0.500000000
   0.247781301   0.250000000   0.250000000
   0.247781301   0.250000000   0.750000000
   0.247781301   0.750000000   0.250000000
   0.247781301   0.750000000   0.750000000
   0.752218699   0.250000000   0.250000000
   0.752218699   0.250000000   0.750000000
   0.752218699   0.750000000   0.250000000
   0.752218699   0.750000000   0.750000000
   0.248472794   0.000000000   0.000000000
   0.248472794   0.000000000   0.500000000
   0.248472794   0.500000000   0.000000000
   0.248472794   0.500000000   0.500000000
   0.751527206   0.000000000   0.000000000
   0.751527206   0.000000000   0.500000000
   0.751527206   0.500000000   0.000000000
   0.751527206   0.500000000   0.500000000
   0.000000000   0.250000000   0.000000000
   0.000000000   0.250000000   0.500000000
   0.000000000   0.750000000   0.000000000
   0.000000000   0.750000000   0.500000000
   0.500000000   0.250000000   0.000000000
   0.500000000   0.250000000   0.500000000
   0.500000000   0.750000000   0.000000000
   0.500000000   0.750000000   0.500000000
   0.000000000   0.000000000   0.250000000
   0.000000000   0.000000000   0.750000000
   0.000000000   0.500000000   0.250000000
   0.000000000   0.500000000   0.750000000
   0.500000000   0.000000000   0.250000000
   0.500000000   0.000000000   0.750000000
   0.500000000   0.500000000   0.250000000
   0.500000000   0.500000000   0.750000000
Mg28Ni4O32
   1.00000000
   8.503385234   0.000000000   0.000000000
   0.000000000   8.498036471   0.000000000
   0.000000000   0.000000000   8.498036471
  Ni  Mg  O
  4  28  32
Direct configuration=     10
   0.000000000   0.000000000   0.000000000
   0.000000000   0.000000000   0.500000000
   0.000000000   0.500000000   0.000000000
   0.000000000   0.500000000   0.500000000
   0.500000000   0.000000000   0.000000000
   0.500000000   0.000000000   0.500000000
   0.500000000   0.500000000   0.000000000
   0.500000000   0.500000000   0.500000000
   0.000000000   0.250000000   0.250000000
   0.000000000   0.250000000   0.750000000
   0.000000000   0.750000000   0.250000000
   0.000000000   0.750000000   0.750000000
   0.500000000   0.250000000   0.250000000
   0.500000000   0.250000000   0.750000000
   0.500000000   0.750000000   0.250000000
   0.500000000   0.750000000   0.750000000
   0.248466369   0.000000000   0.250000000
   0.248466369   0.000000000   0.750000000
   0.248466369   0.500000000   0.250000000
   0.248466369   0.500000000   0.750000000
   0.751533631   0.000000000   0.250000000
   0.751533631   0.000000000   0.750000000
   0.751533631   0.500000000   0.250000000
   0.751533631   0.500000000   0.750000000
   0.248466369   0.250000000   0.000000000
   0.248466369   0.250000000   0.500000000
   0.248466369   0.750000000   0.000000000
   0.248466369   0.750000000   0.500000000
   0.751533631   0.250000000   0.000000000
   0.751533631   0.250000000   0.500000000
   0.751533631   0.750000000   0.000000000
   0.751533631   0.750000000   0.500000000
   0.249009720   0.250000000   0.250000000
   0.249009720   0.250000000   0.750000000
   0.249009720   0.750000000   0.250000000
   0.249009720   0.750000000   0.750000000
   0.750990280   0.250000000   0.250000000
   0.750990280   0.250000000   0.750000000
   0.750990280   0.750000000   0.250000000
   0.750990280   0.750000000   0.750000000
   0.248731753   0.000000000   0.000000000
   0.248731753   0.000000000   0.500000000
   0.248731753   0.500000000   0.000000000
   0.248731753   0.500000000   0.500000000
   0.751268247   0.000000000   0.000000000
   0.751268247   0.000000000   0.500000000
   0.751268247   0.500000000   0.000000000
   0.751268247   0.500000000   0.500000000
   0.000000000   0.250000000   0.000000000
   0.000000000   0.250000000   0.500000000
   0.000000000   0.750000000   0.000000000
   0.000000000   0.750000000   0.500000000
   0.500000000   0.250000000   0.000000000
   0.500000000   0.250000000   0.500000000
   0.500000000   0.750000000   0.000000000
   0.500000000   0.750000000   0.500000000
   0.000000000   0.000000000   0.250000000
   0.000000000   0.000000000   0.750000000
   0.000000000   0.500000000   0.250000000
   0.000000000   0.500000000   0.750000000
   0.500000000   0.000000000   0.250000000
   0.500000000   0.000000000   0.750000000
   0.500000000   0.500000000   0.250000000
   0.500000000   0.500000000   0.750000000
Mg28Ni4O32
   1.00000000
   8.505350942   0.000000000   0.000000000
   0.000000000   8.499794914   0.000000000
   0.000000000   0.000000000   8.499794914
  Ni  Mg  O
  4  28  32
Direct configuration=     11
   0.000000000   0.000000000   0.000000000
   0.000000000   0.000000000   0.500000000
   0.000000000   0.500000000   0.000000000
   0.000000000   0.500000000   0.500000000