H107LiMg53
   1.00000000
   13.503017427   0.000003044   0.000000000
   0.000003044   13.503017158   0.000000000
   0.000000000   0.000000000   9.029981140
  Li  Mg  H
  1  53  107
Direct configuration=     1
   0.999995942   0.000016389   0.000000000
   0.999993853   0.999994732   0.332905965
   0.999993853   0.999994731   0.667094036
   0.000001334   0.333304138   0.000000000
   0.999998569   0.333320353   0.333327853
   0.999998569   0.333320353   0.666672147
   0.999812256   0.666509247   1.000000000
   0.999991150   0.666671215   0.333364262
   0.999991150   0.666671215   0.666635738
   0.333329290   0.000025338   1.000000000
   0.333312696   0.999989332   0.333323322
   0.333312696   0.999989332   0.666676678
   0.333330074   0.333328385   0.999999999
   0.333329071   0.333329838   0.333328268
   0.333329071   0.333329838   0.666671732
   0.333358140   0.666659426   0.000000000
   0.333326936   0.666663768   0.333342885
   0.333326936   0.666663768   0.666657115
   0.666695057   0.000000848   1.000000000
   0.666679235   0.000001379   0.333325504
   0.666679236   0.000001380   0.666674495
   0.666673087   0.333326470   1.000000000
   0.666668140   0.333332184   0.333335063
   0.666668140   0.333332184   0.666664938
   0.666670812   0.666671801   1.000000000
   0.666669764   0.666670809   0.333330621
   0.666669763   0.666670809   0.666669379
   0.166534289   0.166534733   0.166477877
   0.166656823   0.166656016   0.500000000
   0.166534289   0.166534733   0.833522122
   0.166668836   0.499993285   0.166675205
   0.166668910   0.500003916   0.500000000
   0.166668836   0.499993285   0.833324795
   0.166693148   0.833630399   0.167046934
   0.166663859   0.833352165   0.500000000
   0.166693148   0.833630399   0.832953066
   0.500001444   0.166663086   0.166663674
   0.500000079   0.166664053   0.500000000
   0.500001444   0.166663086   0.833336326
   0.499997461   0.500002344   0.166668339
   0.500000279   0.500000020   0.500000000
   0.499997461   0.500002344   0.833331660
   0.499999829   0.833338256   0.166663652
   0.499999353   0.833336201   0.500000000
   0.499999829   0.833338256   0.833336348
   0.833475777   0.166523624   0.166622191
   0.833344792   0.166655462   0.500000000
   0.833475776   0.166523624   0.833377808
   0.833339097   0.500000494   0.166654456
   0.833337405   0.500001382   0.500000000
   0.833339097   0.500000494   0.833345544
   0.833462898   0.833471309   0.166488943
   0.833347559   0.833348031   0.500000000
   0.833462898   0.833471310   0.833511057
   0.101609256   0.101602976   0.000000000
   0.101466607   0.101466976   0.333405373
   0.101466607   0.101466976   0.666594627
   0.101441859   0.434774970   0.000000000
   0.101437489   0.434771417   0.333332461
   0.101437488   0.434771417   0.666667538
   0.101434598   0.768081236   0.333340839
   0.101434598   0.768081236   0.666659161
   0.434773364   0.101440631   1.000000000
   0.434771237   0.101438022   0.333333134
   0.434771237   0.101438022   0.666666866
   0.434773308   0.434771849   0.000000000
   0.434772714   0.434771603   0.333333271
   0.434772714   0.434771603   0.666666729
   0.434768507   0.768108039   0.000000000
   0.434773438   0.768106490   0.333331211
   0.434773438   0.768106490   0.666668789
   0.768071709   0.101458516   1.000000000
   0.768082958   0.101438644   0.333356745
   0.768082958   0.101438644   0.666643255
   0.768103594   0.434770686   1.000000000
   0.768105989   0.434772656   0.333332036
   0.768105989   0.434772656   0.666667964
   0.768041733   0.768041408   0.000000000
   0.768108494   0.768108031   0.333325714
   0.768108494   0.768108031   0.666674286
   0.231960666   0.231961840   0.000000000
   0.231891022   0.231891278   0.333325338
   0.231891022   0.231891278   0.666674662
   0.231880546   0.565254198   0.000000000
   0.231892293   0.565224984   0.333334866
   0.231892294   0.565224984   0.666665134
   0.231726063   0.898344455   0.000000000
   0.231924154   0.898570766   0.333348237
   0.231924154   0.898570766   0.666651763
   0.565227532   0.231894593   1.000000000
   0.565227588   0.231894263   0.333332473
   0.565227588   0.231894263   0.666667527
   0.565228603   0.565227484   0.000000000
   0.565228514   0.565227846   0.333333063
   0.565228514   0.565227846   0.666666937
   0.565227642   0.898559390   1.000000000
   0.565228314   0.898561359   0.333331797
   0.565228314   0.898561359   0.666668203
   0.898541959   0.231929291   1.000000000
   0.898561944   0.231917224   0.333356552
   0.898561944   0.231917224   0.666643449
   0.898562562   0.565229560   1.000000000
   0.898561439   0.565228093   0.333332603
   0.898561439   0.565228092   0.666667397
   0.898425916   0.898381101   1.000000000
   0.898531563   0.898531916   0.333406933
   0.898531563   0.898531916   0.666593067
   0.065217469   0.268137398   0.166693006
   0.065226559   0.268098954   0.500000000
   0.065217469   0.268137399   0.833306994
   0.065250337   0.601496909   0.166595700
   0.065227673   0.601437506   0.500000000
   0.065250337   0.601496909   0.833404300
   0.065368791   0.934567349   0.166864277
   0.065206302   0.934793284   0.500000000
   0.065368791   0.934567349   0.833135723
   0.398558848   0.268104073   0.166665728
   0.398561378   0.268105811   0.500000000
   0.398558848   0.268104073   0.833334272
   0.398555055   0.601443929   0.166660392
   0.398563235   0.601438576   0.500000000
   0.398555055   0.601443929   0.833339608
   0.398555484   0.934768197   0.166661942
   0.398567490   0.934773290   0.500000000
   0.398555484   0.934768197   0.833338058
   0.731899219   0.268100824   0.166665978
   0.731894782   0.268105280   0.500000000
   0.731899219   0.268100824   0.833334022
   0.731893568   0.601441366   0.166668282
   0.731893601   0.601438007   0.500000000
   0.731893568   0.601441366   0.833331718
   0.731862142   0.934782506   0.166692306
   0.731900762   0.934772892   0.500000000
   0.731862142   0.934782506   0.833307694
   0.268134489   0.065213039   0.166686747
   0.268100818   0.065233580   0.500000000
   0.268134489   0.065213039   0.833313253
   0.268103988   0.398557952   0.166665394
   0.268105067   0.398561227   0.500000000
   0.268103988   0.398557952   0.833334606
   0.268036361   0.731911655   0.166588958
   0.268113048   0.731886826   0.500000000
   0.268036361   0.731911655   0.833411042
   0.601440201   0.065228476   0.166667950
   0.601439775   0.065228339   0.500000000
   0.601440201   0.065228476   0.833332050
   0.601439044   0.398561005   0.166666532
   0.601438748   0.398561303   0.500000000
   0.601439044   0.398561005   0.833333468
   0.601440831   0.731896234   0.166666552
   0.601438571   0.731894369   0.500000000
   0.601440831   0.731896234   0.833333448
   0.934644234   0.065353873   0.166961842
   0.934784916   0.065216883   0.500000000
   0.934644234   0.065353873   0.833038158
   0.934771871   0.398557437   0.166670308
   0.934771006   0.398559621   0.500000000
   0.934771871   0.398557437   0.833329691
   0.934841483   0.731885819   0.166619248
   0.934771473   0.731900007   0.500000000
   0.934841483   0.731885819   0.833380752
H107LiMg53
   1.00000000
   13.503227909   0.000038715  -0.000000000
   0.000038715   13.503224809  -0.000000000
  -0.000000000  -0.000000000   9.029759924
  Li  Mg  H
  1  53  107
Direct configuration=     2
   0.999952435   0.000201440   0.999999994
   0.999929365   0.999928095   0.328328669
   0.999929365   0.999928097   0.671671362
   0.000021045   0.332998865   0.999999979
   0.999982005   0.333183967   0.333288831
   0.999982004   0.333183960   0.666711210
   0.997691253   0.664707776   0.999999991
   0.999894432   0.666714078   0.333700852
   0.999894429   0.666714078   0.666299182
   0.333246476   0.000252346   0.999999976
   0.333109999   0.999887289   0.333226763
   0.333109995   0.999887288   0.666773256
   0.333311607   0.333290201   0.999999981
   0.333275246   0.333283687   0.333279279
   0.333275247   0.333283682   0.666720723
   0.333625690   0.666582420   0.999999971
   0.333245181   0.666638207   0.333414633
   0.333245184   0.666638214   0.666585361
   0.666991918   0.000008436   0.999999982
   0.666809735   0.000018167   0.333260354
   0.666809729   0.000018168   0.666739665
   0.666751036   0.333240351   0.999999977
   0.666687517   0.333316177   0.333347444
   0.666687515   0.333316177   0.666652577
   0.666700119   0.666714608   0.999999976
   0.666710023   0.666724078   0.333307767
   0.666710021   0.666724079   0.666692243
   0.165081860   0.165091215   0.164481317
   0.166566689   0.166562507   0.499999983
   0.165081852   0.165091215   0.835518698
   0.166684660   0.499931428   0.166755863
   0.166690674   0.500043204   0.499999981
   0.166684656   0.499931424   0.833244182
   0.167105547   0.836888221   0.171305774
   0.166597966   0.833562557   0.499999979
   0.167105549   0.836888224   0.828694219
   0.500020748   0.166621510   0.166629923
   0.499999808   0.166630705   0.499999982
   0.500020747   0.166621510   0.833370081
   0.499969674   0.500027518   0.166682032
   0.500004538   0.499999081   0.499999975
   0.499969672   0.500027525   0.833317998
   0.499999614   0.833395838   0.166627112
   0.499998253   0.833371414   0.499999975
   0.499999613   0.833395839   0.833372905
   0.834981621   0.165010502   0.166176762
   0.833490365   0.166512775   0.499999978
   0.834981621   0.165010502   0.833823252
   0.833399791   0.499997445   0.166530149
   0.833384296   0.500015136   0.499999988
   0.833399790   0.499997445   0.833469871
   0.834895492   0.834980463   0.164606106
   0.833482475   0.833492881   0.499999974
   0.834895492   0.834980454   0.835393941
   0.103496296   0.103419306   0.999999986
   0.101821593   0.101821931   0.334179711
   0.101821591   0.101821926   0.665820315
   0.101535038   0.434858890   0.999999985
   0.101484965   0.434821795   0.333326598
   0.101484961   0.434821796   0.666673411
   0.101467599   0.767868323   0.333480611
   0.101467602   0.767868322   0.666519389
   0.434845012   0.101527251   0.999999989
   0.434813608   0.101488757   0.333333556
   0.434813606   0.101488756   0.666666479
   0.434841496   0.434824754   0.999999988
   0.434834486   0.434821485   0.333335073
   0.434834483   0.434821481   0.666664934
   0.434789270   0.768201263   0.999999991
   0.434840744   0.768176118   0.333308330
   0.434840737   0.768176113   0.666691682
   0.767763418   0.101744658   0.999999988
   0.767886261   0.101511651   0.333628376
   0.767886261   0.101511652   0.666371642
   0.768150557   0.434821452   0.999999987
   0.768173848   0.434838408   0.333320440
   0.768173845   0.434838404   0.666679572
   0.767396316   0.767390876   0.999999981
   0.768227751   0.768218559   0.333187593
   0.768227747   0.768218552   0.666812414
   0.232635581   0.232649545   0.999999991
   0.231769933   0.231773151   0.333183053
   0.231769936   0.231773151   0.666816956
   0.231658658   0.565493778   0.999999986
   0.231806610   0.565134894   0.333356344
   0.231806606   0.565134897   0.666643648
   0.229793423   0.895865451   0.999999992
   0.232240027   0.898641009   0.333633892
   0.232240027   0.898641008   0.666366140
   0.565163483   0.231833948   0.999999984
   0.565166085   0.231830756   0.333327552
   0.565166100   0.231830764   0.666672470
   0.565180660   0.565168742   0.999999989
   0.565179512   0.565172220   0.333332775
   0.565179517   0.565172223   0.666667237
   0.565174087   0.898480280   0.999999988
   0.565178221   0.898500938   0.333317963
   0.565178225   0.898500944   0.666682052
   0.898260959   0.232249016   0.999999992
   0.898495365   0.232115516   0.333626180
   0.898495365   0.232115518   0.666373834
   0.898453653   0.565132481   0.999999988
   0.898503290   0.565177026   0.333322626
   0.898503291   0.565177028   0.666677375
   0.896931759   0.896385810   0.999999988
   0.898153925   0.898157057   0.334203463
   0.898153929   0.898157059   0.665796541
   0.065050322   0.268546998   0.166979273
   0.065152971   0.268088561   0.499999983
   0.065050321   0.268546999   0.833020735
   0.065462547   0.602218162   0.165786823
   0.065167055   0.601485044   0.499999987
   0.065462549   0.602218162   0.834213179
   0.066777969   0.932420990   0.169054468
   0.064882911   0.935115297   0.499999984
   0.066777968   0.932420994   0.830945531
   0.398475172   0.268148909   0.166654557
   0.398502652   0.268171229   0.499999986
   0.398475171   0.268148909   0.833345450
   0.398420699   0.601566638   0.166589699
   0.398523770   0.601498281   0.499999992
   0.398420697   0.601566637   0.833410311
   0.398415448   0.934775098   0.166589726
   0.398567861   0.934845862   0.499999985
   0.398415445   0.934775099   0.833410298
   0.731934442   0.268065381   0.166657004
   0.731837798   0.268162656   0.499999988
   0.731934435   0.268065381   0.833343000
   0.731824425   0.601526685   0.166683992
   0.731822626   0.601489631   0.499999989
   0.731824423   0.601526685   0.833316024
   0.731447043   0.934950478   0.166969465
   0.731907466   0.934840493   0.499999985
   0.731447043   0.934950480   0.833030548
   0.268506662   0.064982720   0.166890335
   0.268112499   0.065232388   0.499999985
   0.268506666   0.064982719   0.833109671
   0.268149712   0.398463155   0.166650554
   0.268161439   0.398500601   0.499999995
   0.268149715   0.398463156   0.833349469
   0.267274954   0.732070728   0.165722013
   0.268255203   0.731746459   0.500000015
   0.267274956   0.732070726   0.834278008
   0.601518248   0.065178862   0.166675368
   0.601515558   0.065174661   0.499999987
   0.601518247   0.065178863   0.833324636
   0.601501398   0.398498546   0.166660827
   0.601502236   0.398498089   0.499999986
   0.601501404   0.398498543   0.833339191
   0.601520390   0.731854641   0.166664973
   0.601496228   0.731831918   0.499999991
   0.601520392   0.731854638   0.833335041
   0.933358789   0.066617118   0.170226113
   0.935013608   0.065007838   0.499999985
   0.933358793   0.066617114   0.829773894
   0.934824641   0.398455057   0.166702530
   0.934817112   0.398478073   0.499999983
   0.934824640   0.398455056   0.833297472
   0.935676497   0.731751909   0.166074323
   0.934820329   0.731899620   0.499999988
   0.935676499   0.731751907   0.833925682
H107LiMg53
   1.00000000
   13.503249626   0.000040932  -0.000000000
   0.000040932   13.503246254  -0.000000000
  -0.000000000  -0.000000000   9.029746160
  Li  Mg  H
  1  53  107
Direct configuration=     3
   0.999952657   0.000207170   0.999999994
   0.999934266   0.999916541   0.328397493
   0.999934264   0.999916543   0.671602535
   0.000025634   0.333007372   0.999999979
   0.999981070   0.333185764   0.333304552
   0.999981069   0.333185759   0.666695485
   0.997631011   0.664640091   0.999999989
   0.999894994   0.666711920   0.333695895
   0.999894991   0.666711921   0.666304136
   0.333214790   0.000213682   0.999999977
   0.333129361   0.999902243   0.333236006
   0.333129357   0.999902242   0.666764010
   0.333324655   0.333301950   0.999999980
   0.333264512   0.333272341   0.333281085
   0.333264513   0.333272337   0.666718916
   0.333617253   0.666589693   0.999999975
   0.333229688   0.666647727   0.333381472
   0.333229691   0.666647734   0.666618519
   0.666983784   0.000007051   0.999999982
   0.666806801   0.000019924   0.333275531
   0.666806795   0.000019926   0.666724485
   0.666763071   0.333225824   0.999999978
   0.666694516   0.333308974   0.333337624
   0.666694514   0.333308974   0.666662392
   0.666688234   0.666705325   0.999999976
   0.666720019   0.666735599   0.333310052
   0.666720018   0.666735600   0.666689955
   0.165082874   0.165095581   0.164560913
   0.166586429   0.166586812   0.499999985
   0.165082866   0.165095580   0.835439102
   0.166680929   0.499942449   0.166747487
   0.166691211   0.500040084   0.499999983
   0.166680926   0.499942445   0.833252554
   0.167233248   0.836881019   0.171403550
   0.166566975   0.833562883   0.499999981
   0.167233249   0.836881022   0.828596446
   0.500024102   0.166622396   0.166631793
   0.499998762   0.166629360   0.499999986
   0.500024102   0.166622396   0.833368213
   0.499969402   0.500027307   0.166681559
   0.500005529   0.499998115   0.499999979
   0.499969401   0.500027311   0.833318469
   0.500001060   0.833396523   0.166626967
   0.500003541   0.833371992   0.499999979
   0.500001061   0.833396523   0.833373047
   0.834925337   0.165065987   0.166213421
   0.833506692   0.166496481   0.499999982
   0.834925337   0.165065987   0.833786593
   0.833393450   0.499988490   0.166542913
   0.833383534   0.500014011   0.499999991
   0.833393448   0.499988490   0.833457105
   0.834904596   0.834977050   0.164677776
   0.833459928   0.833474599   0.499999977
   0.834904596   0.834977041   0.835322266
   0.103463857   0.103384531   0.999999985
   0.101811209   0.101807493   0.334167639
   0.101811207   0.101807488   0.665832385
   0.101531971   0.434856550   0.999999986
   0.101483573   0.434823950   0.333326610
   0.101483569   0.434823952   0.666673399
   0.101483773   0.767860208   0.333532198
   0.101483776   0.767860207   0.666467801
   0.434845628   0.101528788   0.999999988
   0.434810539   0.101485488   0.333332624
   0.434810537   0.101485487   0.666667408
   0.434841284   0.434825309   0.999999988
   0.434833662   0.434820888   0.333333956
   0.434833658   0.434820883   0.666666049
   0.434792822   0.768206276   0.999999991
   0.434837924   0.768175110   0.333304981
   0.434837918   0.768175105   0.666695032
   0.767763409   0.101751953   0.999999988
   0.767874721   0.101522514   0.333641931
   0.767874722   0.101522514   0.666358083
   0.768156633   0.434829937   0.999999987
   0.768176044   0.434841893   0.333319449
   0.768176041   0.434841890   0.666680561
   0.767388754   0.767381679   0.999999981
   0.768250261   0.768237634   0.333136405
   0.768250257   0.768237627   0.666863602
   0.232645974   0.232660016   0.999999990
   0.231750627   0.231753963   0.333131849
   0.231750630   0.231753963   0.666868159
   0.231649675   0.565501731   0.999999986
   0.231805118   0.565132512   0.333357133
   0.231805113   0.565132515   0.666642861
   0.229751582   0.895807963   0.999999991
   0.232299960   0.898675824   0.333771607
   0.232299960   0.898675823   0.666228422
   0.565159927   0.231832731   0.999999984
   0.565163893   0.231829871   0.333328182
   0.565163907   0.231829877   0.666671838
   0.565180159   0.565169787   0.999999989
   0.565179749   0.565173101   0.333331806
   0.565179753   0.565173104   0.666668206
   0.565178358   0.898483662   0.999999988
   0.565178993   0.898501900   0.333317321
   0.565178994   0.898501904   0.666682691
   0.898253778   0.232249563   0.999999992
   0.898484537   0.232126661   0.333639816
   0.898484537   0.232126662   0.666360196
   0.898385719   0.565065185   0.999999988
   0.898505667   0.565179372   0.333317061
   0.898505668   0.565179374   0.666682940
   0.896974822   0.896414917   0.999999989
   0.898162486   0.898164448   0.334196000
   0.898162489   0.898164449   0.665804003
   0.065052404   0.268548514   0.166981748
   0.065150144   0.268089639   0.499999985
   0.065052403   0.268548515   0.833018260
   0.065484454   0.602241120   0.165757487
   0.065164677   0.601482942   0.499999988
   0.065484456   0.602241120   0.834242515
   0.066696961   0.932455819   0.169103753
   0.064856920   0.935144453   0.499999985
   0.066696962   0.932455823   0.830896247
   0.398480407   0.268149433   0.166657691
   0.398504607   0.268172874   0.499999988
   0.398480406   0.268149433   0.833342315
   0.398416247   0.601570522   0.166590848
   0.398524758   0.601497710   0.499999994
   0.398416244   0.601570522   0.833409160
   0.398402888   0.934768583   0.166574854
   0.398564345   0.934849261   0.499999987
   0.398402885   0.934768584   0.833425168
   0.731969288   0.268029853   0.166659081
   0.731838105   0.268162138   0.499999990
   0.731969281   0.268029853   0.833340926
   0.731825163   0.601521004   0.166686282
   0.731821760   0.601487299   0.499999991
   0.731825161   0.601521003   0.833313735
   0.731445431   0.934949046   0.166970532
   0.731905746   0.934843341   0.499999987
   0.731445431   0.934949048   0.833029483
   0.268502040   0.064971643   0.166880542
   0.268115040   0.065226356   0.499999987
   0.268502042   0.064971643   0.833119463
   0.268151730   0.398467370   0.166653466
   0.268162297   0.398502208   0.499999997
   0.268151733   0.398467371   0.833346556
   0.267216355   0.732096470   0.165709220
   0.268255132   0.731749543   0.500000014
   0.267216357   0.732096468   0.834290799
   0.601517512   0.065178747   0.166672910
   0.601516786   0.065172220   0.499999989
   0.601517511   0.065178749   0.833327094
   0.601499154   0.398500169   0.166659936
   0.601503148   0.398496961   0.499999988
   0.601499159   0.398500167   0.833340083
   0.601514635   0.731853975   0.166668536
   0.601493861   0.731831119   0.499999993
   0.601514636   0.731853975   0.833331479
   0.933410001   0.066564316   0.170286231
   0.935040436   0.064980933   0.499999987
   0.933410004   0.066564313   0.829713777
   0.934824346   0.398457049   0.166699332
   0.934819169   0.398477579   0.499999985
   0.934824348   0.398457045   0.833300670
   0.935699077   0.731771394   0.166052313
   0.934819942   0.731898983   0.499999990
   0.935699079   0.731771392   0.833947694
H107LiMg53
   1.00000000
   13.503675683   0.000088781  -0.000000000
   0.000088781   13.503667402   0.000000000
  -0.000000000   0.000000000   9.029457079
  Li  Mg  H
  1  53  107
Direct configuration=     4
   0.999945878   0.000346050   0.000000002
   0.000003442   0.999703559   0.328594472
   0.000003438   0.999703560   0.671405547
   0.000105334   0.333079835   0.000000015
   0.999961831   0.333190094   0.333551976
   0.999961833   0.333190098   0.666448016
   0.996129622   0.663085292   0.000000002
   0.999887758   0.666686760   0.333677168
   0.999887757   0.666686762   0.666322822
   0.332650289   0.999601985   0.000000006
   0.333432855   0.000150604   0.333369574
   0.333432849   0.000150610   0.666630407
   0.333542510   0.333493151   0.999999998
   0.333070819   0.333069996   0.333294317
   0.333070813   0.333069994   0.666705662
   0.333526286   0.666701260   0.999999997
   0.332943949   0.666806377   0.332849161
   0.332943933   0.666806325   0.667150853
   0.666916255   0.999987042   0.999999996
   0.666783689   0.000053573   0.333508229
   0.666783679   0.000053577   0.666491772
   0.666994026   0.332959793   0.999999996
   0.666819636   0.333180603   0.333177974
   0.666819643   0.333180612   0.666822012
   0.666493218   0.666556750   0.999999997
   0.666899995   0.666943233   0.333336503
   0.666900004   0.666943230   0.666663496
   0.164777338   0.164847241   0.165416223
   0.166897875   0.166969705   0.500000010
   0.164777336   0.164847235   0.834583747
   0.166622811   0.500114989   0.166624372
   0.166702805   0.499995955   0.500000009
   0.166622816   0.500114985   0.833375621
   0.169423314   0.837540451   0.173999040
   0.166019580   0.833615641   0.499999993
   0.169423303   0.837540451   0.826000958
   0.500083642   0.166627390   0.166650812
   0.499981392   0.166598792   0.500000014
   0.500083646   0.166627394   0.833349168
   0.499957343   0.500030414   0.166682056
   0.500022059   0.499982352   0.500000006
   0.499957345   0.500030417   0.833317901
   0.500026496   0.833423235   0.166617747
   0.500089039   0.833391642   0.499999995
   0.500026519   0.833423217   0.833382260
   0.834349331   0.165626584   0.166733940
   0.833819991   0.166184055   0.500000016
   0.834349331   0.165626583   0.833266083
   0.833287500   0.499824858   0.166746553
   0.833382618   0.499998940   0.499999996
   0.833287487   0.499824862   0.833253426
   0.835380536   0.835258205   0.165423842
   0.833111831   0.833199811   0.499999990
   0.835380526   0.835258201   0.834576128
   0.103336119   0.103199915   1.000000000
   0.101716748   0.101641385   0.334156235
   0.101716763   0.101641394   0.665843765
   0.101500875   0.434839634   1.000000000
   0.101469337   0.434873368   0.333322763
   0.101469332   0.434873367   0.666677233
   0.101780845   0.767686959   0.334441372
   0.101780845   0.767686957   0.665558639
   0.434858383   0.101559613   0.999999994
   0.434773526   0.101446628   0.333316271
   0.434773529   0.101446633   0.666683747
   0.434856488   0.434851770   0.000000008
   0.434828791   0.434817253   0.333315015
   0.434828813   0.434817263   0.666685002
   0.434851233   0.768309372   0.999999998
   0.434801182   0.768172966   0.333237860
   0.434801192   0.768172979   0.666762155
   0.767699856   0.101937496   0.999999989
   0.767633247   0.101725352   0.333938762
   0.767633252   0.101725355   0.666061210
   0.768252463   0.434965296   0.999999995
   0.768225227   0.434911011   0.333301522
   0.768225229   0.434911010   0.666698493
   0.767139606   0.767100370   0.999999997
   0.768653739   0.768578095   0.332238105
   0.768653740   0.768578093   0.667761913
   0.232951608   0.232969857   0.000000003
   0.231402910   0.231408230   0.332234962
   0.231402898   0.231408222   0.667765041
   0.231450593   0.565693433   0.999999997
   0.231761410   0.565074708   0.333371119
   0.231761415   0.565074722   0.666628888
   0.228629642   0.894309152   0.999999994
   0.233383960   0.899278836   0.336212312
   0.233383966   0.899278836   0.663787697
   0.565092548   0.231803609   0.999999994
   0.565114822   0.231801085   0.333336165
   0.565114813   0.231801071   0.666663845
   0.565155667   0.565171814   0.000000001
   0.565177266   0.565180400   0.333314872
   0.565177261   0.565180394   0.666685147
   0.565237185   0.898522703   0.999999991
   0.565180772   0.898505577   0.333303458
   0.565180767   0.898505577   0.666696531
   0.898072048   0.232324817   0.999999991
   0.898283793   0.232361525   0.333937443
   0.898283792   0.232361519   0.666062537
   0.897209014   0.563901327   0.999999997
   0.898535111   0.565209678   0.333216281
   0.898535110   0.565209679   0.666783727
   0.897370224   0.896467267   0.000000008
   0.898221452   0.898203896   0.334270611
   0.898221452   0.898203894   0.665729406
   0.065050016   0.268663392   0.167089821
   0.065090389   0.268102696   0.500000009
   0.065050014   0.268663391   0.832910172
   0.065903696   0.602792834   0.165082241
   0.065110345   0.601453269   0.499999998
   0.065903696   0.602792833   0.834917756
   0.065702847   0.932502130   0.170434859
   0.064358328   0.935695481   0.499999994
   0.065702850   0.932502131   0.829565133
   0.398553520   0.268169323   0.166711997
   0.398519545   0.268212232   0.499999997
   0.398553522   0.268169321   0.833288019
   0.398300301   0.601673693   0.166589249
   0.398527097   0.601506227   0.500000001
   0.398300295   0.601673703   0.833410723
   0.398152782   0.934649910   0.166303511
   0.398521091   0.934921199   0.499999999
   0.398152783   0.934649901   0.833696495
   0.732546137   0.267440947   0.166693739
   0.731837066   0.268160380   0.500000004
   0.732546128   0.267440950   0.833306266
   0.731819451   0.601443170   0.166733651
   0.731793651   0.601464822   0.499999996
   0.731819459   0.601443158   0.833266357
   0.731330971   0.934960304   0.167051537
   0.731880061   0.934902336   0.499999996
   0.731330981   0.934960298   0.832948483
   0.268495474   0.064725895   0.166756554
   0.268158015   0.065139321   0.500000008
   0.268495471   0.064725895   0.833243446
   0.268195165   0.398523558   0.166701109
   0.268187241   0.398509366   0.500000007
   0.268195164   0.398523561   0.833298889
   0.266078604   0.732536725   0.165308653
   0.268282160   0.731773356   0.500000002
   0.266078603   0.732536731   0.834691362
   0.601521503   0.065166416   0.166636188
   0.601548690   0.065121582   0.500000006
   0.601521498   0.065166421   0.833363811
   0.601487041   0.398501332   0.166639663
   0.601534823   0.398462394   0.500000002
   0.601487044   0.398501334   0.833360344
   0.601432536   0.731831482   0.166731316
   0.601472540   0.731805903   0.499999998
   0.601432485   0.731831518   0.833268684
   0.933938788   0.066002647   0.172014338
   0.935533286   0.064490043   0.500000003
   0.933938793   0.066002644   0.827985658
   0.934832559   0.398467367   0.166657263
   0.934861966   0.398456094   0.500000003
   0.934832570   0.398467363   0.833342736
   0.936270518   0.732073289   0.165560125
   0.934819915   0.731888753   0.500000003
   0.936270516   0.732073292   0.834439887
H107LiMg53
   1.00000000
   13.503756458   0.000099197  -0.000000000
   0.000099197   13.503747917   0.000000000
  -0.000000000   0.000000000   9.029402251
  Li  Mg  H
  1  53  107
Direct configuration=     5
   0.999942422   0.000371321   0.000000002
   0.000011978   0.999668913   0.328548733
   0.000011974   0.999668914   0.671451284
   0.000113672   0.333075969   0.000000015
   0.999958966   0.333191920   0.333572685
   0.999958967   0.333191926   0.666427303
   0.995849584   0.662809161   0.000000001
   0.999890711   0.666687614   0.333672486
   0.999890710   0.666687617   0.666327500
   0.332558972   0.999515813   0.000000006
   0.333495279   0.000204886   0.333383293
   0.333495272   0.000204892   0.666616688
   0.333572757   0.333518916   0.999999998
   0.333042342   0.333040699   0.333286722
   0.333042336   0.333040699   0.666713260
   0.333511120   0.666722203   0.000000000
   0.332895135   0.666831715   0.332793865
   0.332895122   0.666831665   0.667206144
   0.666921223   0.999986894   0.999999994
   0.666781400   0.000058986   0.333526371
   0.666781389   0.000058990   0.666473627
   0.667040483   0.332919078   0.999999995
   0.666840342   0.333158524   0.333161337
   0.666840345   0.333158532   0.666838643
   0.666467296   0.666536866   0.999999997
   0.666928384   0.666974521   0.333330691
   0.666928389   0.666974516   0.666669305
   0.164693629   0.164769728   0.165421491
   0.166935019   0.167010328   0.500000011