H107LiMg53
   1.00000000
   13.503017337   0.000003288  -0.000000026
   0.000003288   13.503017337  -0.000000026
  -0.000000017  -0.000000017   9.029981223
  Li  Mg  H
  1  53  107
Direct configuration=     1
   0.999998639   0.999998639   0.000001974
   0.000024978   0.000024978   0.332895655
   0.999990834   0.999990834   0.667100367
   0.000000465   0.333304719   0.000000483
   0.999999543   0.333320505   0.333326082
   0.999998711   0.333322226   0.666673456
   0.999992959   0.666692206   0.999993078
   0.000023911   0.666666282   0.333325589
   0.999995689   0.666673927   0.666681127
   0.333304719   0.000000465   0.000000484
   0.333320506   0.999999543   0.333326082
   0.333322226   0.999998711   0.666673456
   0.333329390   0.333329390   0.000000174
   0.333328810   0.333328810   0.333328814
   0.333329199   0.333329199   0.666671013
   0.333325526   0.666673215   0.999998101
   0.333332422   0.666669100   0.333335270
   0.333330828   0.666667883   0.666666625
   0.666692206   0.999992958   0.999993078
   0.666666282   0.000023911   0.333325589
   0.666673927   0.999995690   0.666681128
   0.666673215   0.333325526   0.999998100
   0.666669100   0.333332422   0.333335271
   0.666667883   0.333330828   0.666666625
   0.666662992   0.666662992   0.999964726
   0.666489148   0.666489148   0.333328499
   0.666663184   0.666663184   0.666706715
   0.166535213   0.166535213   0.166479149
   0.166658029   0.166658029   0.499999881
   0.166534222   0.166534222   0.833521076
   0.166659386   0.500002608   0.166663357
   0.166661454   0.500002540   0.500000705
   0.166662277   0.500000202   0.833335937
   0.166525502   0.833474993   0.166621837
   0.166655516   0.833345036   0.499999228
   0.166525360   0.833474427   0.833379325
   0.500002608   0.166659386   0.166663357
   0.500002540   0.166661454   0.500000705
   0.500000202   0.166662277   0.833335937
   0.500001320   0.500001320   0.166677473
   0.500001313   0.500001313   0.499990195
   0.500001592   0.500001592   0.833332318
   0.499997227   0.833343832   0.166656072
   0.499997192   0.833341992   0.500007995
   0.500003895   0.833342883   0.833335965
   0.833474993   0.166525502   0.166621837
   0.833345035   0.166655516   0.499999228
   0.833474427   0.166525360   0.833379325
   0.833343832   0.499997227   0.166656072
   0.833341992   0.499997192   0.500007995
   0.833342883   0.500003895   0.833335965
   0.833620443   0.833620443   0.166061489
   0.833502926   0.833502926   0.500424675
   0.833469881   0.833469881   0.833519810
   0.101609046   0.101609046   0.999998934
   0.101466278   0.101466278   0.333405582
   0.101465061   0.101465061   0.666595302
   0.101441004   0.434772507   0.999999669
   0.101439426   0.434771154   0.333332338
   0.101439148   0.434771220   0.666667994
   0.101458513   0.768074457   0.000000922
   0.101434955   0.768086785   0.333356175
   0.101439296   0.768084596   0.666642683
   0.434772507   0.101441004   0.999999669
   0.434771154   0.101439426   0.333332338
   0.434771220   0.101439148   0.666667994
   0.434772801   0.434772801   0.000000526
   0.434770818   0.434770818   0.333332892
   0.434772486   0.434772486   0.666666581
   0.434771538   0.768103933   0.999999769
   0.434773930   0.768107031   0.333332608
   0.434771867   0.768104613   0.666667620
   0.768074457   0.101458513   0.000000922
   0.768086785   0.101434955   0.333356175
   0.768084596   0.101439296   0.666642683
   0.768103933   0.434771538   0.999999769
   0.768107031   0.434773930   0.333332608
   0.768104613   0.434771867   0.666667620
   0.768036145   0.768036146   0.000002809
   0.768105269   0.768105269   0.666663508
   0.231960488   0.231960488   0.000000055
   0.231890527   0.231890527   0.333325894
   0.231890851   0.231890851   0.666674036
   0.231895677   0.565227925   0.999999852
   0.231895351   0.565227550   0.333332554
   0.231894998   0.565227637   0.666667597
   0.231926771   0.898542775   0.000000501
   0.231917182   0.898561992   0.333356145
   0.231916440   0.898562166   0.666643245
   0.565227925   0.231895677   0.999999852
   0.565227550   0.231895351   0.333332554
   0.565227637   0.231894998   0.666667597
   0.565227255   0.565227255   0.999999412
   0.565230193   0.565230193   0.333333034
   0.565227694   0.565227694   0.666667564
   0.565223800   0.898557620   0.999997317
   0.565253649   0.898547305   0.333332501
   0.565225209   0.898559311   0.666670103
   0.898542775   0.231926771   0.000000501
   0.898561992   0.231917182   0.333356145
   0.898562166   0.231916440   0.666643245
   0.898557620   0.565223800   0.999997317
   0.898547305   0.565253649   0.333332501
   0.898559311   0.565225209   0.666670102
   0.898396302   0.898396302   0.000018714
   0.898335563   0.898335563   0.333401503
   0.898543355   0.898543355   0.666587018
   0.065217395   0.268137410   0.166692477
   0.065226786   0.268099023   0.499999732
   0.065217225   0.268137324   0.833307798
   0.065223448   0.601444017   0.166674498
   0.065223349   0.601443628   0.499993588
   0.065230573   0.601439588   0.833331873
   0.065355179   0.934638728   0.166969450
   0.065210649   0.934781820   0.499994108
   0.065364037   0.934643203   0.833034121
   0.398559341   0.268103272   0.166666060
   0.398562001   0.268105051   0.499999950
   0.398559102   0.268103519   0.833333991
   0.398557879   0.601439721   0.166664419
   0.398558380   0.601439216   0.500002154
   0.398559620   0.601438974   0.833333426
   0.398559132   0.934771770   0.166668632
   0.398559682   0.934771678   0.499999513
   0.398559738   0.934771125   0.833331853
   0.731898737   0.268100996   0.166665434
   0.731894525   0.268105238   0.500000432
   0.731898570   0.268101400   0.833334156
   0.731918321   0.601497413   0.166737034
   0.731916416   0.601495386   0.499928843
   0.731895212   0.601438896   0.833333728
   0.731875690   0.934723031   0.166767227
   0.731914346   0.934709171   0.499922160
   0.731855696   0.934790354   0.833308333
   0.268137410   0.065217395   0.166692477
   0.268099023   0.065226786   0.499999732
   0.268137324   0.065217225   0.833307798
   0.268103272   0.398559341   0.166666060
   0.268105051   0.398562001   0.499999950
   0.268103519   0.398559102   0.833333991
   0.268100996   0.731898737   0.166665434
   0.268105238   0.731894525   0.500000432
   0.268101400   0.731898570   0.833334157
   0.601444017   0.065223447   0.166674498
   0.601443628   0.065223349   0.499993588
   0.601439588   0.065230573   0.833331874
   0.601439721   0.398557879   0.166664419
   0.601439216   0.398558380   0.500002154
   0.601438974   0.398559620   0.833333426
   0.601497413   0.731918321   0.166737034
   0.601495386   0.731916416   0.499928843
   0.601438896   0.731895212   0.833333728
   0.934638728   0.065355179   0.166969450
   0.934781820   0.065210649   0.499994108
   0.934643204   0.065364037   0.833034121
   0.934771770   0.398559131   0.166668632
   0.934771678   0.398559683   0.499999513
   0.934771124   0.398559738   0.833331853
   0.934723031   0.731875690   0.166767227
   0.934709171   0.731914346   0.499922160
   0.934790354   0.731855696   0.833308333
H107LiMg53
   1.00000000
   13.503223918   0.000041699  -0.000000715
   0.000041699   13.503223920  -0.000000715
  -0.000000478  -0.000000478   9.029764899
  Li  Mg  H
  1  53  107
Direct configuration=     2
   0.999987246   0.999987245   0.000027409
   0.000246129   0.000246119   0.328311972
   0.999907351   0.999907346   0.671634275
   0.000009310   0.333010927   0.000004733
   0.999995204   0.333189597   0.333267300
   0.999984204   0.333209229   0.666728211
   0.999906483   0.666954570   0.999943229
   0.000286774   0.666650290   0.333261660
   0.999942337   0.666747973   0.666791290
   0.333010926   0.000009309   0.000004731
   0.333189596   0.999995207   0.333267298
   0.333209230   0.999984203   0.666728212
   0.333301934   0.333301934   0.000001794
   0.333270871   0.333270873   0.333285418
   0.333277006   0.333277006   0.666712783
   0.333230911   0.666753190   0.999976298
   0.333318462   0.666700225   0.333349309
   0.333299304   0.666684534   0.666674331
   0.666954570   0.999906480   0.999943230
   0.666650294   0.000286775   0.333261659
   0.666747975   0.999942333   0.666791285
   0.666753193   0.333230913   0.999976295
   0.666700225   0.333318462   0.333349306
   0.666684534   0.333299303   0.666674333
   0.666606870   0.666606870   0.999602967
   0.664504135   0.664504138   0.333278452
   0.666631967   0.666631970   0.667115176
   0.165120015   0.165120015   0.164525368
   0.166585055   0.166585054   0.500001363
   0.165105660   0.165105657   0.835474004
   0.166576001   0.500031547   0.166624066
   0.166600647   0.500028578   0.500007689
   0.166611332   0.500002366   0.833368247
   0.165059346   0.834947764   0.166180310
   0.166517210   0.833490548   0.499990805
   0.165059549   0.834941974   0.833833526
   0.500031547   0.166575998   0.166624066
   0.500028578   0.166600647   0.500007683
   0.500002363   0.166611331   0.833368249
   0.500008657   0.500008656   0.166776953
   0.500008648   0.500008645   0.499897450
   0.500016382   0.500016380   0.833325473
   0.499976611   0.833459543   0.166544881
   0.499978108   0.833437545   0.500087087
   0.500042062   0.833452290   0.833368456
   0.834947762   0.165059348   0.166180308
   0.833490546   0.166517213   0.499990803
   0.834941975   0.165059554   0.833833522
   0.833459542   0.499976609   0.166544882
   0.833437544   0.499978104   0.500087085
   0.833452292   0.500042058   0.833368457
   0.836799388   0.836799389   0.159505033
   0.835386167   0.835386171   0.505073215
   0.834926848   0.834926848   0.835453679
   0.103461417   0.103461417   0.999989401
   0.101822097   0.101822098   0.334175222
   0.101798428   0.101798430   0.665833557
   0.101523548   0.434827208   0.999996710
   0.101507630   0.434815571   0.333325853
   0.101504604   0.434816258   0.666677432
   0.101734786   0.767797862   0.000014369
   0.101467595   0.767937847   0.333618090
   0.101512346   0.767905778   0.666365052
   0.434827206   0.101523547   0.999996710
   0.434815570   0.101507629   0.333325849
   0.434816256   0.101504601   0.666677437
   0.434835727   0.434835729   0.000007992
   0.434817822   0.434817821   0.333331237
   0.434831867   0.434831867   0.666660756
   0.434826882   0.768146648   0.999998487
   0.434853432   0.768184424   0.333329099
   0.434830092   0.768155185   0.666672395
   0.767797861   0.101734786   0.000014371
   0.767937848   0.101467595   0.333618092
   0.767905778   0.101512345   0.666365053
   0.768146648   0.434826881   0.999998489
   0.768184425   0.434853433   0.333329101
   0.768155187   0.434830096   0.666672392
   0.767338390   0.767338389   0.999996939
   0.768187302   0.768187300   0.666725210
   0.232623784   0.232623783   0.000000470
   0.231764900   0.231764898   0.333192718
   0.231769829   0.231769829   0.666806650
   0.231847653   0.565169690   0.999998723
   0.231843644   0.565166929   0.333328438
   0.231839154   0.565166996   0.666672868
   0.232214227   0.898275594   0.000007311
   0.232112212   0.898497562   0.333617312
   0.232104072   0.898499587   0.666374016
   0.565169689   0.231847652   0.999998721
   0.565166929   0.231843644   0.333328437
   0.565166996   0.231839154   0.666672869
   0.565168081   0.565168081   0.999998893
   0.565140090   0.565140090   0.333333109
   0.565173337   0.565173336   0.666668205
   0.565129431   0.898460206   0.999967670
   0.565486377   0.898327458   0.333327795
   0.565142189   0.898477370   0.666703360
   0.898275593   0.232214225   0.000007316
   0.898497563   0.232112210   0.333617316
   0.898499586   0.232104070   0.666374013
   0.898460205   0.565129431   0.999967668
   0.898327459   0.565486377   0.333327794
   0.898477369   0.565142189   0.666703360
   0.896664331   0.896664332   0.000101310
   0.895803776   0.895803776   0.334121733
   0.898340376   0.898340376   0.665849909
   0.065051473   0.268540917   0.166968716
   0.065156353   0.268090011   0.499996506
   0.065049687   0.268540813   0.833034832
   0.065114439   0.601567618   0.166751207
   0.065109945   0.601565040   0.499925692
   0.065206135   0.601508715   0.833322482
   0.066602342   0.933304239   0.170275786
   0.064921913   0.934969987   0.499917344
   0.066719417   0.933361604   0.829778567
   0.398482806   0.268137900   0.166658830
   0.398511121   0.268159497   0.499999668
   0.398479106   0.268142028   0.833341509
   0.398463897   0.601508915   0.166637181
   0.398466632   0.601506077   0.500024000
   0.398482891   0.601500139   0.833338835
   0.398474315   0.934823921   0.166684198
   0.398479155   0.934825819   0.499993712
   0.398481970   0.934815346   0.833322078
   0.731928436   0.268068021   0.166650135
   0.731836148   0.268160667   0.500005277
   0.731926539   0.268072732   0.833344888
   0.732137372   0.602210846   0.167521609
   0.732114101   0.602189225   0.499134911
   0.731843545   0.601493703   0.833338582
   0.731600841   0.934225586   0.167863235
   0.732053436   0.934068973   0.499068060
   0.731381232   0.935039960   0.833041224
   0.268540916   0.065051474   0.166968715
   0.268090010   0.065156355   0.499996505
   0.268540813   0.065049687   0.833034833
   0.268137900   0.398482806   0.166658832
   0.268159496   0.398511123   0.499999668
   0.268142026   0.398479108   0.833341512
   0.268068021   0.731928435   0.166650135
   0.268160668   0.731836147   0.500005274
   0.268072733   0.731926540   0.833344885
   0.601567618   0.065114439   0.166751206
   0.601565041   0.065109944   0.499925693
   0.601508715   0.065206135   0.833322480
   0.601508914   0.398463899   0.166637179
   0.601506076   0.398466634   0.500024002
   0.601500138   0.398482892   0.833338835
   0.602210845   0.732137372   0.167521611
   0.602189227   0.732114101   0.499134909
   0.601493702   0.731843546   0.833338582
   0.933304239   0.066602341   0.170275783
   0.934969983   0.064921916   0.499917348
   0.933361605   0.066719419   0.829778567
   0.934823921   0.398474315   0.166684198
   0.934825818   0.398479158   0.499993713
   0.934815344   0.398481970   0.833322075
   0.934225585   0.731600842   0.167863230
   0.934068974   0.732053436   0.499068059
   0.935039960   0.731381231   0.833041221
H107LiMg53
   1.00000000
   13.503237585   0.000043315  -0.000001221
   0.000043315   13.503237587  -0.000001221
  -0.000000817  -0.000000817   9.029760400
  Li  Mg  H
  1  53  107
Direct configuration=     3
   0.999991694   0.999991693   0.000029915
   0.000206880   0.000206870   0.328572879
   0.999924609   0.999924605   0.671374861
   0.000012251   0.333029773   0.000003880
   0.999995743   0.333197228   0.333283114
   0.999984017   0.333215878   0.666713269
   0.999899497   0.666938223   0.999967412
   0.000281689   0.666644035   0.333277453
   0.999937565   0.666744843   0.666750299
   0.333029772   0.000012250   0.000003878
   0.333197226   0.999995745   0.333283112
   0.333215879   0.999984016   0.666713270
   0.333313472   0.333313472   0.000001557
   0.333261039   0.333261041   0.333287827
   0.333268068   0.333268068   0.666710606
   0.333220478   0.666763285   0.999975901
   0.333311444   0.666707471   0.333339208
   0.333292574   0.666691000   0.666684852
   0.666938223   0.999899495   0.999967412
   0.666644038   0.000281690   0.333277451
   0.666744845   0.999937561   0.666750294
   0.666763288   0.333220480   0.999975899
   0.666707471   0.333311444   0.333339206
   0.666691000   0.333292574   0.666684854
   0.666597868   0.666597869   0.999631893
   0.664514800   0.664514803   0.333278961
   0.666643240   0.666643242   0.667084240
   0.165174306   0.165174306   0.164667135
   0.166608833   0.166608832   0.500003430
   0.165158072   0.165158069   0.835329547
   0.166577059   0.500031528   0.166625216
   0.166601160   0.500026727   0.500006919
   0.166612587   0.500002348   0.833367875
   0.165166128   0.834842219   0.166231296
   0.166508080   0.833500644   0.499990903
   0.165168270   0.834836472   0.833782383
   0.500031528   0.166577056   0.166625215
   0.500026727   0.166601161   0.500006914
   0.500002346   0.166612587   0.833367878
   0.500001209   0.500001209   0.166760983
   0.500001282   0.500001279   0.499913109
   0.500013888   0.500013886   0.833325805
   0.499986250   0.833455357   0.166554506
   0.499989464   0.833433843   0.500077965
   0.500037530   0.833451508   0.833367932
   0.834842217   0.165166130   0.166231294
   0.833500642   0.166508083   0.499990900
   0.834836473   0.165168274   0.833782380
   0.833455356   0.499986248   0.166554507
   0.833433842   0.499989460   0.500077963
   0.833451509   0.500037526   0.833367933
   0.836728828   0.836728828   0.159793215
   0.835357438   0.835357441   0.504967540
   0.834856944   0.834856944   0.835296082
   0.103364410   0.103364410   0.999991316
   0.101806261   0.101806261   0.334141705
   0.101777320   0.101777322   0.665865819
   0.101517822   0.434821685   0.999997427
   0.101504556   0.434814063   0.333326762
   0.101501851   0.434814511   0.666675809
   0.101726955   0.767805257   0.000016952
   0.101477243   0.767935372   0.333622542
   0.101514738   0.767898686   0.666358247
   0.434821684   0.101517821   0.999997427
   0.434814062   0.101504555   0.333326758
   0.434814509   0.101501848   0.666675811
   0.434834380   0.434834382   0.000009177
   0.434820403   0.434820402   0.333330868
   0.434829846   0.434829846   0.666659939
   0.434830612   0.768145446   0.999999748
   0.434855097   0.768183194   0.333329644
   0.434833285   0.768154269   0.666670598
   0.767805256   0.101726955   0.000016954
   0.767935373   0.101477243   0.333622542
   0.767898686   0.101514737   0.666358248
   0.768145446   0.434830611   0.999999750
   0.768183195   0.434855097   0.333329646
   0.768154271   0.434833288   0.666670595
   0.767357407   0.767357406   0.999969766
   0.768205896   0.768205896   0.666808643
   0.232611178   0.232611177   0.000000257
   0.231750195   0.231750193   0.333149683
   0.231755734   0.231755734   0.666849903
   0.231847962   0.565168692   0.999999252
   0.231843762   0.565167438   0.333328996
   0.231839212   0.565166550   0.666671778
   0.232204331   0.898278619   0.000008466
   0.232116306   0.898490135   0.333621313
   0.232108786   0.898491986   0.666368787
   0.565168691   0.231847961   0.999999251
   0.565167438   0.231843763   0.333328995
   0.565166550   0.231839212   0.666671778
   0.565171963   0.565171963   0.000004516
   0.565077229   0.565077229   0.333332861
   0.565177869   0.565177868   0.666662938
   0.565136385   0.898466372   0.999967916
   0.565487908   0.898327459   0.333328755
   0.565145577   0.898480732   0.666702125
   0.898278618   0.232204330   0.000008471
   0.898490135   0.232116304   0.333621316
   0.898491986   0.232108784   0.666368784
   0.898466371   0.565136385   0.999967914
   0.898327460   0.565487908   0.333328754
   0.898480731   0.565145576   0.666702124
   0.896850396   0.896850397   0.999894087
   0.895837357   0.895837358   0.334077966
   0.898410678   0.898410678   0.666023854
   0.065058800   0.268528419   0.166961383
   0.065155767   0.268091795   0.499996385
   0.065057278   0.268529085   0.833042224
   0.065113132   0.601567223   0.166745257
   0.065105799   0.601566277   0.499928836
   0.065208192   0.601504920   0.833325060
   0.066500334   0.933389529   0.170227048
   0.064892573   0.934984728   0.499909006
   0.066625921   0.933451222   0.829833098
   0.398490825   0.268136423   0.166662136
   0.398514869   0.268157611   0.499999899
   0.398486517   0.268141534   0.833337973
   0.398469667   0.601504971   0.166638038
   0.398470345   0.601504130   0.500022277
   0.398486849   0.601496293   0.833339696
   0.398477435   0.934822703   0.166682091
   0.398480904   0.934827110   0.499993353
   0.398485068   0.934813668   0.833324548
   0.731960644   0.268035491   0.166652031
   0.731838843   0.268157681   0.500005307
   0.731958942   0.268039984   0.833342971
   0.732150043   0.602205655   0.167524226
   0.732127008   0.602187514   0.499135618
   0.731844846   0.601483629   0.833335191
   0.731599878   0.934217492   0.167841057
   0.732034082   0.934073043   0.499083156
   0.731398860   0.935030455   0.833048718
   0.268528419   0.065058800   0.166961383
   0.268091794   0.065155768   0.499996384
   0.268529085   0.065057278   0.833042225
   0.268136423   0.398490825   0.166662137
   0.268157610   0.398514871   0.499999899
   0.268141531   0.398486519   0.833337975
   0.268035491   0.731960643   0.166652031
   0.268157682   0.731838841   0.500005304
   0.268039985   0.731958944   0.833342968
   0.601567223   0.065113132   0.166745256
   0.601566278   0.065105798   0.499928836
   0.601504920   0.065208192   0.833325059
   0.601504970   0.398469670   0.166638036
   0.601504129   0.398470347   0.500022279
   0.601496292   0.398486850   0.833339695
   0.602205654   0.732150043   0.167524228
   0.602187516   0.732127008   0.499135616
   0.601483629   0.731844846   0.833335190
   0.933389529   0.066500333   0.170227046
   0.934984725   0.064892575   0.499909009
   0.933451222   0.066625922   0.829833098
   0.934822703   0.398477436   0.166682091
   0.934827109   0.398480906   0.499993355
   0.934813667   0.398485068   0.833324545
   0.934217491   0.731599879   0.167841053
   0.934073044   0.732034081   0.499083156
   0.935030456   0.731398859   0.833048716
H107LiMg53
   1.00000000
   13.503379392   0.000063492  -0.000004723
   0.000063492   13.503379394  -0.000004722
  -0.000003158  -0.000003158   9.029678840
  Li  Mg  H
  1  53  107
Direct configuration=     4
   0.000020628   0.000020626   0.000050904
   0.999988134   0.999988128   0.329299916
   0.000027446   0.000027442   0.670649384
   0.000033538   0.333089054   0.999999340
   0.999998433   0.333219887   0.333373628
   0.999979653   0.333236161   0.666627433
   0.999832387   0.666889620   0.000116331
   0.000306292   0.666597439   0.333366384
   0.999892164   0.666740234   0.666504643
   0.333089054   0.000033536   0.999999341
   0.333219884   0.999998431   0.333373623
   0.333236159   0.999979650   0.666627435
   0.333385077   0.333385078   0.000000504
   0.333182882   0.333182884   0.333292603
   0.333195903   0.333195903   0.666706857
   0.333127620   0.666850883   0.999968717
   0.333260433   0.666763970   0.333275723
   0.333239755   0.666739038   0.666755672
   0.666889620   0.999832385   0.000116331
   0.666597442   0.000306295   0.333366381
   0.666740235   0.999892162   0.666504640
   0.666850888   0.333127621   0.999968717
   0.666763969   0.333260435   0.333275722
   0.666739037   0.333239755   0.666755674
   0.666525260   0.666525260   0.999744842
   0.664132112   0.664132102   0.333271023
   0.666713248   0.666713248   0.666969365
   0.165217963   0.165217965   0.165162109
   0.166751461   0.166751461   0.500016397
   0.165185996   0.165186000   0.834817845
   0.166564670   0.500037714   0.166623952
   0.166590262   0.500020502   0.500003493
   0.166608790   0.500002512   0.833372623
   0.165538668   0.834479364   0.166473704
   0.166414237   0.833602584   0.499990148
   0.165553368   0.834472706   0.833541263
   0.500037715   0.166564665   0.166623953
   0.500020500   0.166590261   0.500003489
   0.500002512   0.166608791   0.833372614
   0.499948854   0.499948853   0.166672829
   0.499949533   0.499949532   0.500002087
   0.500000637   0.500000634   0.833325105
   0.500047503   0.833454357   0.166594064
   0.500062128   0.833431313   0.500034636
   0.500016191   0.833470982   0.833371653
   0.834479362   0.165538670   0.166473703
   0.833602581   0.166414240   0.499990145
   0.834472709   0.165553369   0.833541264
   0.833454357   0.500047502   0.166594068
   0.833431308   0.500062130   0.500034632
   0.833470983   0.500016187   0.833371650
   0.836990624   0.836990622   0.160177340
   0.835594590   0.835594592   0.505321530
   0.834718874   0.834718873   0.834699218
   0.103132906   0.103132907   0.000001958
   0.101777392   0.101777392   0.334097158
   0.101712771   0.101712772   0.665902633
   0.101498382   0.434797550   0.000001803
   0.101499022   0.434814156   0.333331745
   0.101497866   0.434812770   0.666666452
   0.101736158   0.767793530   0.000038453
   0.101549545   0.767884244   0.333713978
   0.101547741   0.767810105   0.666246262
   0.434797548   0.101498381   0.000001808
   0.434814155   0.101499021   0.333331744
   0.434812772   0.101497867   0.666666451
   0.434840109   0.434840110   0.000017813
   0.434842975   0.434842973   0.333328103
   0.434827890   0.434827890   0.666654060
   0.434867778   0.768146324   0.000009160
   0.434884069   0.768191603   0.333331824
   0.434867851   0.768159047   0.666659077
   0.767793528   0.101736158   0.000038456
   0.767884246   0.101549545   0.333713974
   0.767810105   0.101547739   0.666246262
   0.768146322   0.434867776   0.000009162
   0.768191604   0.434884068   0.333331826
   0.768159049   0.434867853   0.666659075
   0.767340450   0.767340450   0.999787770
   0.768352457   0.768352460   0.667382987
   0.232670880   0.232670880   0.999998717
   0.231625156   0.231625155   0.332830339
   0.231634870   0.231634869   0.667170709
   0.231839658   0.565149972   0.000002790
   0.231832781   0.565158180   0.333331144
   0.231827254   0.565150639   0.666666086
   0.232201552   0.898238962   0.000018200
   0.232188575   0.898425095   0.333709481
   0.232183362   0.898425856   0.666270016
   0.565149972   0.231839658   0.000002790
   0.565158180   0.231832782   0.333331142
   0.565150638   0.231827253   0.666666089
   0.565183985   0.565183985   0.000043924
   0.564635027   0.564635027   0.333331263
   0.565197750   0.565197749   0.666625894
   0.565161187   0.898485190   0.999963353
   0.565551017   0.898278163   0.333334435
   0.565149732   0.898484888   0.666700568
   0.898238960   0.232201550   0.000018202
   0.898425091   0.232188571   0.333709483
   0.898425856   0.232183363   0.666270011
   0.898485190   0.565161187   0.999963353
   0.898278165   0.565551018   0.333334433
   0.898484888   0.565149731   0.666700568
   0.897693818   0.897693818   0.998547461
   0.895499336   0.895499336   0.333954988
   0.898831173   0.898831175   0.667019413
   0.065070599   0.268535083   0.166974972
   0.065137298   0.268100714   0.499995217
   0.065070543   0.268540870   0.833029430
   0.065079900   0.601592064   0.166723698
   0.065053246   0.601600028   0.499934061
   0.065215571   0.601495699   0.833339624
   0.066107507   0.933644005   0.170646519
   0.064631722   0.935119643   0.499833467
   0.066321895   0.933749962   0.829466674
   0.398528039   0.268134739   0.166683393
   0.398526816   0.268156589   0.500001360
   0.398518995   0.268147537   0.833315257
   0.398483502   0.601498033   0.166635793
   0.398473816   0.601507114   0.500016405
   0.398492655   0.601487648   0.833347790
   0.398480208   0.934825616   0.166672167
   0.398476718   0.934846863   0.499989455
   0.398488158   0.934812393   0.833338415
   0.732178518   0.267814615   0.166661632
   0.731845419   0.268148383   0.500006771
   0.732177748   0.267818730   0.833332028
   0.732284839   0.602332422   0.167719951
   0.732259327   0.602334900   0.498961100
   0.731840804   0.601427646   0.833312991
   0.731531407   0.934049064   0.167937062
   0.731935646   0.933953616   0.498995182
   0.731408834   0.935023931   0.833037345
   0.268535085   0.065070598   0.166974971
   0.268100713   0.065137300   0.499995218
   0.268540873   0.065070540   0.833029432
   0.268134739   0.398528039   0.166683394
   0.268156588   0.398526818   0.500001358
   0.268147534   0.398518996   0.833315257
   0.267814614   0.732178518   0.166661632
   0.268148385   0.731845417   0.500006769
   0.267818728   0.732177751   0.833332025
   0.601592064   0.065079901   0.166723698
   0.601600029   0.065053245   0.499934063
   0.601495699   0.065215572   0.833339625
   0.601498032   0.398483503   0.166635791
   0.601507113   0.398473817   0.500016406
   0.601487647   0.398492655   0.833347789
   0.602332418   0.732284843   0.167719948
   0.602334898   0.732259331   0.498961104
   0.601427645   0.731840807   0.833312989
   0.933644005   0.066107505   0.170646516
   0.935119642   0.064631722   0.499833468
   0.933749961   0.066321895   0.829466675
   0.934825614   0.398480210   0.166672164
   0.934846865   0.398476713   0.499989460
   0.934812392   0.398488158   0.833338413
   0.934049062   0.731531409   0.167937059
   0.933953619   0.731935646   0.498995181
   0.935023932   0.731408834   0.833037345
H107LiMg53
   1.00000000
   13.503596000   0.000095820  -0.000009205
   0.000095820   13.503596002  -0.000009205
  -0.000006156  -0.000006156   9.029540808
  Li  Mg  H
  1  53  107
Direct configuration=     5
   0.000061922   0.000061920   0.000076734
   0.999733669   0.999733666   0.329608762
   0.000160052   0.000160047   0.670344648
   0.000060342   0.333120959   0.999994806
   0.000001250   0.333232833   0.333473964
   0.999972423   0.333248975   0.666531806
   0.999734338   0.666869113   0.000291948
   0.000371356   0.666534553   0.333463176
   0.999824484   0.666743767   0.666221406
   0.333120958   0.000060339   0.999994808
   0.333232832   0.000001241   0.333473955
   0.333248971   0.999972418   0.666531812
   0.333472129   0.333472131   0.999999815
   0.333078511   0.333078514   0.333288734
   0.333096670   0.333096671   0.666711376
   0.332993838   0.666976853   0.999957601
   0.333192252   0.666841652   0.333200453
   0.333167424   0.666804168   0.666842244
   0.666869115   0.999734336   0.000291948
   0.666534555   0.000371360   0.333463175
   0.666743768   0.999824484   0.666221404
   0.666976860   0.332993839   0.999957606
   0.666841650   0.333192256   0.333200454
   0.666804166   0.333167425   0.666842245
   0.666428287   0.666428286   0.999838731
   0.663365976   0.663365960   0.333254084
   0.666801113   0.666801111   0.666882030
   0.165077236   0.165077238   0.165488097
   0.166920030   0.166920030   0.500029522