Mg28Ni4O32
   1.00000000
   8.440336039   0.000001923   0.000000014
   0.000001923   8.440341615  -0.000000025
   0.000000014  -0.000000025   8.440342879
  Ni  Mg  O
  4  28  32
Direct configuration=     1
   0.000072567   0.999903453   0.999978215
   0.999943101   0.000012855   0.500018747
   0.500048957   0.250076529   0.250048234
   0.249929384   0.750044993   0.999948115
   0.000085038   0.500056827   0.000011719
   0.999992035   0.499975762   0.499990453
   0.499925097   0.000043911   0.000117659
   0.500009893   0.000113147   0.499869129
   0.499927837   0.499981977   0.000081646
   0.500004978   0.499912672   0.499903874
   0.000002131   0.249735241   0.250017380
   0.999994121   0.249794207   0.749978313
   0.000086651   0.750213400   0.249924191
   0.000077940   0.750198986   0.750073236
   0.500002755   0.249994513   0.750022419
   0.499889642   0.750011128   0.249916684
   0.499920010   0.749998635   0.750061352
   0.249879681   0.000018173   0.249921786
   0.249792029   0.999914219   0.750085069
   0.250095959   0.499969126   0.249938337
   0.250008659   0.500088400   0.750074455
   0.750117276   0.000109075   0.250029468
   0.750214323   0.000003967   0.749972478
   0.749892285   0.499873967   0.249996434
   0.749994676   0.499997915   0.750002185
   0.250010663   0.249903014   0.000130798
   0.249987705   0.249915690   0.499894129
   0.249885276   0.750137545   0.500000156
   0.750010153   0.249903041   0.000099847
   0.750018379   0.249908154   0.499904241
   0.750091454   0.750111638   0.999999184
   0.750082427   0.750104463   0.500005012
   0.249744901   0.250050812   0.249939344
   0.250045543   0.250009257   0.750045824
   0.250036674   0.750002125   0.250189493
   0.249979241   0.750018315   0.749832249
   0.750233435   0.250038612   0.249984315
   0.749953413   0.249994983   0.750012442
   0.749948620   0.749983648   0.249943664
   0.749994417   0.750005306   0.750059165
   0.250074694   0.000116277   0.999962137
   0.250209723   0.999907452   0.500027637
   0.249932658   0.499822508   0.999985047
   0.249958996   0.500055695   0.500000551
   0.749853137   0.999930129   0.999978260
   0.749803797   0.999973056   0.500021742
   0.750044866   0.500057339   0.000007827
   0.750036493   0.500004640   0.499991526
   0.000041638   0.250166436   0.000039834
   0.000010307   0.250204743   0.499960680
   0.999863106   0.749900234   0.999999789
   0.000073149   0.749806444   0.499997917
   0.499948703   0.249955434   0.999726362
   0.499991670   0.249952395   0.500248273
   0.500198158   0.750041736   0.000047558
   0.499947206   0.750038563   0.499960142
   0.000020093   0.000029862   0.249938813
   0.000026499   0.999972420   0.750057662
   0.000003665   0.499971546   0.249986882
   0.000014514   0.500005488   0.750015434
   0.500019545   0.999713550   0.250007570
   0.500001142   0.000031234   0.750004050
   0.500009813   0.500247805   0.249996985
   0.499987100   0.499965335   0.750015880
Mg28Ni4O32
   1.00000000
   8.442109857   0.000012717   0.000000101
   0.000012717   8.442144787  -0.000000204
   0.000000101  -0.000000204   8.442152853
  Ni  Mg  O
  4  28  32
Direct configuration=     2
   0.000383362   0.999493819   0.999886940
   0.999702770   0.000063609   0.500092534
   0.500257686   0.250400162   0.250258856
   0.249637699   0.750234088   0.999722776
   0.000445831   0.500265654   0.000096023
   0.999977040   0.499874636   0.499916791
   0.499614904   0.000234085   0.000617150
   0.500026045   0.000576071   0.499307665
   0.499634477   0.499909361   0.000414033
   0.500002602   0.499579217   0.499505515
   0.000034863   0.248591983   0.250065863
   0.999999805   0.248927044   0.749912856
   0.000457536   0.751111211   0.249589490
   0.000408150   0.751032258   0.750393307
   0.499987008   0.249916912   0.750144417
   0.499409883   0.750100905   0.249562552
   0.499583142   0.750049950   0.750309689
   0.249361756   0.000079901   0.249579920
   0.248938123   0.999572794   0.750458482
   0.250444408   0.499844732   0.249692406
   0.250022609   0.500438145   0.750379550
   0.750618568   0.000533552   0.250134786
   0.751095205   0.000019314   0.749875269
   0.749487334   0.499368993   0.249953914
   0.749995181   0.499990358   0.750038720
   0.250030287   0.249477737   0.000687236
   0.249919825   0.249548180   0.499457123
   0.249394792   0.750756840   0.499981073
   0.750083942   0.249476479   0.000511675
   0.750114573   0.249519533   0.499514340
   0.750474509   0.750613006   0.000024913
   0.750416805   0.750551904   0.499997873
   0.248644333   0.250234115   0.249684537
   0.250186135   0.250009170   0.750233844
   0.250145333   0.750050454   0.250966715
   0.249843498   0.750133004   0.749140808
   0.751253215   0.250162768   0.249925132
   0.749812234   0.249930549   0.750057487
   0.749781718   0.749955763   0.249713715
   0.750020129   0.750065628   0.750301464
   0.250376518   0.000593849   0.999819551
   0.251092361   0.999533825   0.500124795
   0.249673384   0.499077105   0.999938577
   0.249821166   0.500270708   0.499984437
   0.749241323   0.999657356   0.999905815
   0.748975476   0.999882857   0.500095941
   0.750207193   0.500276993   0.000057881
   0.750154739   0.499995873   0.499939887
   0.000212011   0.250835824   0.000203492
   0.000046985   0.251040529   0.499798510
   0.999314533   0.749505118   0.999991948
   0.000379304   0.749019051   0.499995020
   0.499730513   0.249768377   0.998596388
   0.499963700   0.249762398   0.501275220
   0.501003643   0.750212066   0.000238922
   0.499726952   0.750186416   0.499803294
   0.000120048   0.000140173   0.249665733
   0.000153431   0.999830160   0.750313009
   0.000033981   0.499869951   0.249909817
   0.000089565   0.500051156   0.750101895
   0.500093627   0.998512449   0.250020112
   0.499993814   0.000133900   0.750043663
   0.500034183   0.501298873   0.249964315
   0.499914238   0.499851107   0.750104340
Mg28Ni4O32
   1.00000000
   8.442627597   0.000016307   0.000000127
   0.000016307   8.442671224  -0.000000294
   0.000000127  -0.000000294   8.442680854
  Ni  Mg  O
  4  28  32
Direct configuration=     3
   0.000415069   0.999454485   0.999879458
   0.999680300   0.000064359   0.500094514
   0.500279723   0.250431833   0.250285064
   0.249617363   0.750249477   0.999695799
   0.000477454   0.500254877   0.000133818
   0.999991766   0.499868167   0.499881180
   0.499594994   0.000254440   0.000663595
   0.500004651   0.000602209   0.499250831
   0.499619191   0.499906517   0.000429924
   0.499981591   0.499583167   0.499480316
   0.000058150   0.248471906   0.250048173
   0.000027454   0.248856184   0.749930436
   0.000494443   0.751185113   0.249548231
   0.000436034   0.751093749   0.750429364
   0.499961809   0.249862457   0.750178154
   0.499356155   0.750145352   0.249530002
   0.499555961   0.750105182   0.750321526
   0.249310112   0.000071672   0.249540174
   0.248888394   0.999562278   0.750502178
   0.250423507   0.499840510   0.249684359
   0.250003625   0.500447444   0.750396484
   0.750666005   0.000537693   0.250127144
   0.751148222   0.000018944   0.749883515
   0.749497847   0.499351432   0.249925935
   0.750015726   0.499991408   0.750066065
   0.250009281   0.249429603   0.000738057
   0.249899437   0.249505343   0.499428404
   0.249347230   0.750843503   0.499962643
   0.750118349   0.249423612   0.000536934
   0.750139786   0.249486565   0.499495370
   0.750502490   0.750681759   0.000052367
   0.750433830   0.750594181   0.499972523
   0.248531786   0.250219441   0.249665884
   0.250150320   0.249972042   0.750245265
   0.250110866   0.750090703   0.251009884
   0.249789871   0.750176783   0.749099276
   0.751368414   0.250136711   0.249925253
   0.749851252   0.249885311   0.750056933
   0.749814280   0.749991331   0.249701396
   0.750066198   0.750105734   0.750315292
   0.250389026   0.000620011   0.999824328
   0.251163573   0.999521426   0.500114705
   0.249673855   0.499017403   0.999950412
   0.249839707   0.500270370   0.499965884
   0.749197336   0.999655957   0.999917830
   0.748906505   0.999895895   0.500085604
   0.750198452   0.500275253   0.000077996
   0.750133830   0.499971171   0.499920674
   0.000221654   0.250860843   0.000212659
   0.000045973   0.251083309   0.499788736
   0.999297161   0.749496092   0.999986673
   0.000400614   0.748980640   0.499997771
   0.499710888   0.249752225   0.998526678
   0.499966011   0.249756220   0.501341056
   0.501043029   0.750223300   0.000245501
   0.499710433   0.750187851   0.499799889
   0.000142207   0.000132053   0.249629057
   0.000177560   0.999796327   0.750345036
   0.000050393   0.499879097   0.249883351
   0.000108758   0.500073782   0.750128835
   0.500091462   0.998420848   0.250002577
   0.499981118   0.000115988   0.750068235
   0.500020285   0.501390077   0.249942966
   0.499891233   0.499870385   0.750131830
Mg28Ni4O32
   1.00000000
   8.450263069   0.000070176   0.000000532
   0.000070176   8.450435229  -0.000001719
   0.000000532  -0.000001719   8.450466492
  Ni  Mg  O
  4  28  32
Direct configuration=     4
   0.000737152   0.999061420   0.999807195
   0.999459254   0.000042588   0.500087195
   0.500513975   0.250754784   0.250580026
   0.249470082   0.750372154   0.999390336
   0.000767214   0.499960514   0.000676900
   0.000225417   0.499828648   0.499365166
   0.499464169   0.000465940   0.001115443
   0.499661205   0.000748884   0.498675550
   0.499546510   0.499907224   0.000478890
   0.499653014   0.499851074   0.499329132
   0.000400448   0.247236114   0.249744254
   0.000458504   0.248248093   0.750245955
   0.000864079   0.751827321   0.249091158
   0.000675300   0.751560015   0.750806094
   0.499579151   0.249056050   0.750636344
   0.498780902   0.750784096   0.249218682
   0.499327052   0.750944472   0.750362659
   0.248802393   0.999908021   0.249108591
   0.248603537   0.999590455   0.750971940
   0.249893038   0.499852186   0.249699627
   0.249697445   0.500395339   0.750481944
   0.751121774   0.000359538   0.249949489
   0.751469840   0.999999388   0.750065772
   0.749902320   0.499371603   0.249512535
   0.750338767   0.500016766   0.750474316
   0.249667202   0.248926594   0.001221384
   0.249614962   0.249038959   0.499227995
   0.248876332   0.751852779   0.499690919
   0.750623078   0.248833001   0.000693082
   0.750484313   0.249202791   0.499432732
   0.750715540   0.751472507   0.000462408
   0.750507601   0.750990100   0.499581479
   0.247418385   0.249866617   0.249526471
   0.249499177   0.249371815   0.750320110
   0.249493024   0.750704525   0.251216113
   0.249030978   0.750805448   0.748857903
   0.752581444   0.249645984   0.249950610
   0.750554014   0.249202465   0.750040717
   0.750435999   0.750576209   0.249636753
   0.750773820   0.750709719   0.750395524
   0.250405812   0.000741790   0.999988782
   0.251754452   0.999561113   0.499891434
   0.249822658   0.498515324   0.000167848
   0.250194353   0.500139356   0.499679432
   0.748871294   0.999795848   0.000155623
   0.748311285   0.000146784   0.499873651
   0.749983000   0.500119208   0.000370551
   0.749748836   0.499600139   0.499644179
   0.000279023   0.250840124   0.000258931
   0.000024888   0.251245812   0.499732615
   0.999357627   0.749587994   0.999920825
   0.000548663   0.748854596   0.500023844
   0.499529926   0.249592552   0.998120376
   0.500004608   0.249764349   0.501762693
   0.501178044   0.750321072   0.000234882
   0.499573602   0.750147779   0.499831392
   0.000435782   0.999922767   0.249210887
   0.000485812   0.999354076   0.750697435
   0.000294332   0.500087595   0.249507349
   0.000371493   0.500390552   0.750506667
   0.500006433   0.997708695   0.249712526
   0.499776515   0.999776765   0.750439168
   0.499784576   0.502204426   0.249620783
   0.499568574   0.500239087   0.750518736
Mg28Ni4O32
   1.00000000
   8.455671361   0.000108920   0.000000822
   0.000108920   8.455934687  -0.000002832
   0.000000822  -0.000002832   8.455979317
  Ni  Mg  O
  4  28  32
Direct configuration=     5
   0.000860015   0.998907919   0.999773577
   0.999375425   0.000005821   0.500068351
   0.500618742   0.250889418   0.250716021
   0.249468029   0.750378664   0.999239404
   0.000851167   0.499701937   0.000996269
   0.000369960   0.499838604   0.499054863
   0.499475131   0.000549750   0.001277602
   0.499440811   0.000715030   0.498457235
   0.499582149   0.499934965   0.000398877
   0.499442347   0.500145128   0.499373053
   0.000600258   0.246757712   0.249538753
   0.000732288   0.248116162   0.750471109
   0.000997770   0.751974864   0.248890774
   0.000716902   0.751582482   0.750945597
   0.499342593   0.248565126   0.750892649
   0.498534728   0.751152176   0.249113647
   0.499283442   0.751470237   0.750314045
   0.248636924   0.999788466   0.248923595
   0.248676056   0.999701696   0.751163644
   0.249450055   0.499905982   0.249780625
   0.249496915   0.500264687   0.750440259
   0.751268198   0.000125313   0.249811017
   0.751414533   0.999973676   0.750205520
   0.750291284   0.499540185   0.249262360
   0.750548682   0.500043091   0.750727581
   0.249441470   0.248740404   0.001380431
   0.249445765   0.248837329   0.499224531
   0.248704086   0.752331814   0.499533572
   0.750938667   0.248567446   0.000668999
   0.750684777   0.249151115   0.499524382
   0.750731996   0.751835225   0.000707354
   0.750455589   0.751098708   0.499336264
   0.247060563   0.249559287   0.249522606
   0.249032473   0.248958613   0.750321227
   0.249045651   0.751099160   0.251080534
   0.248595057   0.751186475   0.748924467
   0.753049370   0.249279541   0.249966768
   0.751060490   0.248768053   0.750049061
   0.750907061   0.750975733   0.249654451
   0.751217594   0.751093333   0.750381884
   0.250318430   0.000655871   0.000147054
   0.251841578   0.999727213   0.499703842
   0.249978130   0.498419829   0.000327989
   0.250430940   0.499989687   0.499493416
   0.748862535   0.999970145   0.000341084
   0.748188985   0.000322991   0.499704591
   0.749824952   0.499950952   0.000551291
   0.749488109   0.499385170   0.499474403
   0.000274839   0.250581389   0.000236136
   0.000027419   0.251058057   0.499750215
   0.999585324   0.749771265   0.999900825
   0.000536616   0.749044121   0.500009721
   0.499479571   0.249521614   0.998254406
   0.500014698   0.249818511   0.501699923
   0.500996314   0.750368270   0.000166428
   0.499541242   0.750119832   0.499886944
   0.000598957   0.999725693   0.249022890
   0.000649418   0.999124587   0.750842915
   0.000447127   0.500262338   0.249282671
   0.000524926   0.500559715   0.750732072
   0.499916038   0.997663595   0.249512038
   0.499631295   0.999535791   0.750679740
   0.499620592   0.502401619   0.249415276
   0.499376951   0.500510419   0.750751172
Mg28Ni4O32
   1.00000000
   8.462076557   0.000155230   0.000001152
   0.000155230   8.462447786  -0.000004277
   0.000001152  -0.000004277   8.462505249
  Ni  Mg  O
  4  28  32
Direct configuration=     6
   0.000916223   0.998817962   0.999735451
   0.999330222   0.999948739   0.500051638
   0.500693834   0.250979223   0.250802330
   0.249538456   0.750314150   0.999118307
   0.000857106   0.499423715   0.001238672
   0.000477862   0.499876809   0.498804621
   0.499553232   0.000591412   0.001349781
   0.499260573   0.000610739   0.498358799
   0.499664349   0.499983821   0.000239699
   0.499262505   0.500508178   0.499536149
   0.000742550   0.246542606   0.249363770
   0.000958604   0.248184967   0.750681350
   0.001043788   0.751914699   0.248777690
   0.000656382   0.751372026   0.750982339
   0.499151712   0.248171213   0.751083665
   0.498388394   0.751416587   0.249077640
   0.499322570   0.751907542   0.750219220
   0.248618849   0.999684415   0.248820485
   0.248917607   0.999850324   0.751250607
   0.249007247   0.499994486   0.249896599
   0.249324944   0.500090680   0.750329620
   0.751292337   0.999852865   0.249686294
   0.751182975   0.999932486   0.750332603
   0.750723442   0.499801032   0.249064380
   0.750732591   0.500081234   0.750940878
   0.249248358   0.248688708   0.001426700
   0.249303642   0.248722586   0.499304215
   0.248628533   0.752639567   0.499424420
   0.751216016   0.248407175   0.000560418
   0.750849312   0.249216649   0.499714243
   0.750655127   0.752045148   0.000889391
   0.750340979   0.751075645   0.499135113
   0.247049425   0.249215099   0.249590199
   0.248605183   0.248562062   0.750302535
   0.248618120   0.751446043   0.250732374
   0.248278517   0.751502642   0.749153089
   0.753215786   0.248919940   0.249962365
   0.751539819   0.248390084   0.750106773
   0.751375741   0.751343725   0.249697329
   0.751577461   0.751426151   0.750333163
   0.250164250   0.000439985   0.000327386
   0.251669011   0.999997026   0.499496272
   0.250129348   0.498505470   0.000483345
   0.250593512   0.499818459   0.499329359
   0.749022195   0.000174993   0.000531762
   0.748286088   0.000468355   0.499527410
   0.749713407   0.499758452   0.000704635
   0.749285479   0.499246256   0.499330194
   0.000257167   0.250130575   0.000178257
   0.000069892   0.250639718   0.499808828
   0.999941012   0.750020015   0.999918479
   0.000431893   0.749439240   0.499940794
   0.499485402   0.249458378   0.998719348
   0.499988720   0.249893522   0.501378556
   0.500618758   0.750438584   0.000060352
   0.499538776   0.750147305   0.499943254
   0.000722182   0.999482496   0.248921053
   0.000765627   0.998980785   0.750901326
   0.000577433   0.500447267   0.249100891
   0.000649907   0.500652663   0.750918893
   0.499799292   0.997985906   0.249323386
   0.499482270   0.999331977   0.750900030
   0.499467680   0.502324003   0.249235401
   0.499220325   0.500765439   0.750945872
Mg28Ni4O32
   1.00000000
   8.468206369   0.000199782   0.000001417
   0.000199782   8.468680730  -0.000005761
   0.000001417  -0.000005761   8.468747209
  Ni  Mg  O
  4  28  32
Direct configuration=     7
   0.000916003   0.998771277   0.999686521
   0.999313939   0.999892994   0.500057915
   0.500734980   0.251029877   0.250820600
   0.249629134   0.750208793   0.999045619
   0.000816328   0.499262249   0.001291235
   0.000489614   0.499920015   0.498722961
   0.499637499   0.000595553   0.001360873
   0.499209394   0.000538148   0.498364056
   0.499726658   0.500028866   0.000094340
   0.499192964   0.500767834   0.499732451
   0.000755857   0.246571718   0.249312063
   0.001030715   0.248349614   0.750776145
   0.001014813   0.751748454   0.248768842
   0.000535578   0.751066174   0.750916319
   0.499096506   0.248055171   0.751134400
   0.498352235   0.751451209   0.249086093
   0.499401927   0.752059862   0.750142497
   0.248722962   0.999657778   0.248810064
   0.249145655   0.999930119   0.751223579
   0.248804646   0.500074338   0.249971488
   0.249263075   0.499983416   0.750218851
   0.751224716   0.999713277   0.249651113
   0.750952315   0.999888273   0.750373675
   0.750974886   0.500001430   0.249008728
   0.750808597   0.500118738   0.751024414
   0.249184648   0.248765549   0.001399933
   0.249242572   0.248708183   0.499389965
   0.248624496   0.752702448   0.499419967
   0.751344485   0.248378779   0.000452634
   0.750916425   0.249350951   0.499899175
   0.750548056   0.752047265   0.000916241
   0.750243279   0.750959571   0.499070103
   0.247338771   0.248992726   0.249684548
   0.248439340   0.248352197   0.750302711
   0.248416318   0.751591391   0.250358908
   0.248232931   0.751617095   0.749391039
   0.753073864   0.248739635   0.249924651
   0.751758640   0.248235820   0.750219833
   0.751613844   0.751510498   0.249712068
   0.751674180   0.751559634   0.750298966
   0.250028633   0.000208558   0.000438695
   0.251349955   0.000233219   0.499360945
   0.250165439   0.498678277   0.000558520
   0.250554216   0.499731422   0.499262641
   0.749252355   0.000284492   0.000638297
   0.748506515   0.000497009   0.499425400
   0.749745464   0.499650711   0.000763276
   0.749270204   0.499272818   0.499275455
   0.000264077   0.249699143   0.000128152
   0.000154182   0.250207443   0.499872597
   0.000239014   0.750188106   0.999972870
   0.000291832   0.749828527   0.499823793
   0.499531311   0.249401655   0.999271078
   0.499921466   0.249941280   0.501004763
   0.500258618   0.750545445   0.999978293
   0.499534997   0.750275191   0.499945907
   0.000756610   0.999292536   0.248932856
   0.000789247   0.998982645   0.750856763
   0.000628410   0.500545890   0.249041067
   0.000696267   0.500605519   0.750989057
   0.499706666   0.998489743   0.249231781
   0.499389103   0.999288687   0.751008981
   0.499397321   0.502080486   0.249160142
   0.499165251   0.500874279   0.751023088
Mg28Ni4O32
   1.00000000
   8.478056484   0.000271664   0.000001675
   0.000271663   8.478696834  -0.000008175
   0.000001675  -0.000008175   8.478774397
  Ni  Mg  O
  4  28  32
Direct configuration=     8
   0.000895818   0.998688053   0.999587070
   0.999293872   0.999816856   0.500102718
   0.500781458   0.251101442   0.250792037
   0.249743456   0.750033303   0.998967422
   0.000747563   0.499186154   0.001155964
   0.000393400   0.499973031   0.498790482
   0.499725917   0.000588691   0.001373388
   0.499285500   0.000539887   0.498419424
   0.499757864   0.500078124   0.999946739
   0.499213259   0.500986178   0.500006807
   0.000633058   0.246751218   0.249392423
   0.000960880   0.248585155   0.750771094
   0.000930633   0.751495623   0.248831277
   0.000330953   0.750613018   0.750737069
   0.499173542   0.248204557   0.751065607
   0.498368719   0.751250556   0.249101753
   0.499521066   0.751962886   0.750084837
   0.248954279   0.999722195   0.248858784
   0.249352038   0.999923320   0.751096827
   0.248838156   0.500162844   0.250001917
   0.249302527   0.499942956   0.750093207
   0.751079883   0.999720857   0.249720828
   0.750726564   0.999822593   0.750319140
   0.751078710   0.500162364   0.249085588
   0.750793370   0.500168559   0.751004866
   0.249253460   0.248966521   0.001350199
   0.249239873   0.248757456   0.499465995
   0.248631639   0.752592550   0.499528289
   0.751367643   0.248433297   0.000354569
   0.750911804   0.249577096   0.500115746
   0.750408340   0.751867116   0.000778177
   0.750161933   0.750744412   0.499125940
   0.247980885   0.248847358   0.249819432
   0.248542814   0.248279445   0.750358251
   0.248419141   0.751561237   0.249880360
   0.248470568   0.751546445   0.749651666
   0.752632043   0.248716773   0.249834198
   0.751735178   0.248279910   0.750452955
   0.751642618   0.751502969   0.249662907
   0.751496115   0.751512486   0.750298045
   0.249887047   0.999906973   0.000495543
   0.250813648   0.000479324   0.499264564
   0.250048342   0.498936712   0.000559660
   0.250231494   0.499747614   0.499286376
   0.749602978   0.000283293   0.000679262
   0.748868918   0.000393093   0.499382400
   0.749986696   0.499628585   0.000735247
   0.749489069   0.499511954   0.499307041
   0.000334030   0.249166306   0.000093912
   0.000319416   0.249663509   0.499950488
   0.000536330   0.750278747   0.000076581
   0.000082528   0.750288362   0.499604254
   0.499623259   0.249315180   0.000041412
   0.499782032   0.249971302   0.500534113
   0.499858521   0.750763101   0.999912017
   0.499491934   0.750604845   0.499860057
   0.000711264   0.999097094   0.249050411
   0.000723865   0.999126026   0.750697687
   0.000611924   0.500556434   0.249093886
   0.000675595   0.500372569   0.750954897
   0.499614603   0.999293009   0.249221664
   0.499325915   0.999440816   0.751034841
   0.499400907   0.501669350   0.249176880
   0.499203142   0.500840311   0.751002812
Mg28Ni4O32
   1.00000000
   8.488713165   0.000350218   0.000001597
   0.000350218   8.489534458  -0.000010660
   0.000001597  -0.000010660   8.489621423
  Ni  Mg  O
  4  28  32
Direct configuration=     9
   0.000883188   0.998563977   0.999466523
   0.999269698   0.999759632   0.500180270
   0.500814791   0.251178152   0.250717804
   0.249793584   0.749881820   0.998923569
   0.000699686   0.499306727   0.000816789
   0.000191218   0.499994470   0.499046137
   0.499740795   0.000588049   0.001407842
   0.499512386   0.000701382   0.498487090
   0.499704336   0.500092203   0.999925310
   0.499354404   0.500971810   0.500191191
   0.000383529   0.246988078   0.249639925
   0.000719765   0.248714018   0.750606088
   0.000831963   0.751323325   0.248942047
   0.000150175   0.750279408   0.750510925
   0.499412071   0.248680395   0.750863567
   0.498438543   0.750821360   0.249096312
   0.499600965   0.751547362   0.750112307
   0.249205717   0.999897058   0.248951371
   0.249334528   0.999767710   0.750913721
   0.249250972   0.500192334   0.249928483
   0.249477233   0.500047242   0.750044001
   0.750933358   0.999982099   0.249919428
   0.750708489   0.999770092   0.750141764
   0.750848583   0.500123193   0.249316143
   0.750640392   0.500196922   0.750841823
   0.249500454   0.249194995   0.001330401
   0.249331197   0.248857456   0.499451206
   0.248617140   0.752318120   0.499733832
   0.751209985   0.248556034   0.000371649
   0.750796800   0.249773055   0.500213921
   0.750337951   0.751537316   0.000473517
   0.750177692   0.750553995   0.499325567
   0.248695531   0.248959930   0.249910712
   0.249046285   0.248501131   0.750486056
   0.248784261   0.751253561   0.249605448
   0.248997884   0.751206934   0.749715311
   0.752064665   0.248994776   0.249737432
   0.751298867   0.248633243   0.750713102
   0.751262951   0.751202408   0.249521813
   0.750980798   0.751185783   0.750364658
   0.249846525   0.999718746   0.000407144
   0.250333290   0.000533210   0.499310856
   0.249752656   0.499110911   0.000424421
   0.249657275   0.499955370   0.499451401
   0.749883404   0.000069769   0.000572036
   0.749164183   0.000148329   0.499481948
   0.750409963   0.499782768   0.000576852
   0.749946019   0.499934933   0.499472996
   0.000477971   0.248864186   0.000130447
   0.000482532   0.249363193   0.499987750
   0.000593764   0.750142721   0.000159019
   0.999920133   0.750493444   0.499386381
   0.499723135   0.249253152   0.000572198
   0.499639446   0.249968563   0.500302389
   0.499722025   0.751008183   0.999928794
   0.499392969   0.751042417   0.499674181
   0.000567082   0.999043269   0.249244561
   0.000554629   0.999373116   0.750470178
   0.000498038   0.500383986   0.249298122
   0.000556467   0.499998687   0.750763378
   0.499601330   0.999964284   0.249364251
   0.499367258   0.999826743   0.750898236
   0.499533527   0.501339977   0.249342338
   0.499373546   0.500582489   0.750835070
Mg28Ni4O32
   1.00000000
   8.495435568   0.000401528   0.000000996
   0.000401528   8.496373788  -0.000011891
   0.000000996  -0.000011891   8.496464983
  Ni  Mg  O
  4  28  32
Direct configuration=     10
   0.000888240   0.998465256   0.999397842
   0.999262947   0.999754032   0.500239385
   0.500807092   0.251209514   0.250636001
   0.249740957   0.749854102   0.998952271
   0.000695806   0.499555539   0.000465286
   0.000003332   0.499962428   0.499348017
   0.499671696   0.000598834   0.001429619
   0.499759652   0.000943124   0.498542867
   0.499602584   0.500056897   0.000059238
   0.499530840   0.500721320   0.500161643
   0.000156605   0.247170850   0.249921634
   0.000450776   0.248650636   0.750373202
   0.000764429   0.751320057   0.249038073
   0.000100027   0.750266373   0.750360545
   0.499681909   0.249225407   0.750643803
   0.498544099   0.750416316   0.249078738
   0.499590861   0.751055542   0.750209940
   0.249335663   0.000085692   0.249044927
   0.249103650   0.999560793   0.750770403
   0.249815084   0.500133730   0.249796346
   0.249689313   0.500224936   0.750100354
   0.750860400   0.000344801   0.250133346
   0.750904079   0.999766884   0.749943566
   0.750401576   0.499900499   0.249568133
   0.750429552   0.500175211   0.750629334
   0.249799406   0.249307856   0.001342793
   0.249473070   0.248965061   0.499359833
   0.248593907   0.752022529   0.499905770
   0.750953218   0.248683156   0.000505722
   0.750624847   0.249822735   0.500130042
   0.750384082   0.751228883   0.000179328
   0.750274803   0.750514953   0.499544725
   0.249071234   0.249310369   0.249901202
   0.249702387   0.248933412   0.750618605
   0.249346433   0.750813503   0.249712700
   0.249518875   0.750754995   0.749519426
   0.751692017   0.249454915   0.249720609
   0.750653547   0.249131038   0.750826808
   0.750629907   0.750752510   0.249363480
   0.750399377   0.750729943   0.750455937
   0.249934487   0.999755748   0.000205300
   0.250185714   0.000330421   0.499492789
   0.249458266   0.499095014   0.000210110
   0.249164786   0.500263623   0.499681155
   0.749933846   0.999742250   0.000359379
   0.749215330   0.999913521   0.499689508
   0.750762001   0.500038942   0.000360788
   0.750374976   0.500297887   0.499704262
   0.000620021   0.248982499   0.000231990
   0.000514906   0.249508227   0.499960368
   0.000357178   0.749829551   0.000132461
   0.999902380   0.750294630   0.499326688
   0.499784898   0.249290166   0.000527324
   0.499606004   0.249968844   0.500475030
   0.499953409   0.751109591   0.000023527
   0.499289011   0.751318231   0.499491323
   0.000394437   0.999187884   0.249408877
   0.000360878   0.999561315   0.750297264
   0.000345961   0.500090488   0.249554049
   0.000392568   0.499700774   0.750498009
   0.499694487   0.000098512   0.249600875
   0.499512222   0.000245392   0.750652882
   0.499736938   0.501298316   0.249585245
   0.499597022   0.500233544   0.750599300
Mg28Ni4O32
   1.00000000
   8.496796806   0.000414655   0.000000239
   0.000414655   8.497762725  -0.000011620
   0.000000239  -0.000011620   8.497853791
  Ni  Mg  O
  4  28  32
Direct configuration=     11
   0.000888040   0.998460581   0.999413987
   0.999288406   0.999782400   0.500239104
   0.500762007   0.251173594   0.250589734
   0.249662403   0.749923720   0.999030014