Mg28Ni4O32
   1.00000000
   8.440354143   0.000000000   0.000000000
   0.000000000   8.440340331  -0.000000000
   0.000000000  -0.000000000   8.440349196
  Ni  Mg  O
  4  28  32
Direct configuration=     1
   0.000077794   0.000000000   0.000108794
   0.999922206   0.500000000   0.500108794
   0.249977400   0.000000000   0.249923413
   0.750022600   0.500000000   0.749923413
   0.000105056   0.000000000   0.499903793
   0.999894944   0.500000000   0.999903793
   0.499924883   0.000000000   0.000064348
   0.499900035   0.000000000   0.499919378
   0.500099965   0.500000000   0.999919378
   0.500075117   0.500000000   0.500064348
   0.000081252   0.249903813   0.249985785
   0.999918748   0.250096187   0.749985785
   0.000081252   0.750096187   0.249985785
   0.999918748   0.749903813   0.749985785
   0.499907121   0.249946586   0.250006346
   0.500092879   0.250053414   0.750006346
   0.499907121   0.750053414   0.250006346
   0.500092879   0.749946586   0.750006346
   0.249942389   0.000000000   0.750080421
   0.249904092   0.500000000   0.250112191
   0.249924247   0.500000000   0.749907168
   0.750075753   0.000000000   0.249907168
   0.750095908   0.000000000   0.750112191
   0.750057611   0.500000000   0.250080421
   0.249929420   0.249834538   0.000092959
   0.249945022   0.249999254   0.499908825
   0.249929420   0.750165462   0.000092959
   0.249945022   0.750000746   0.499908825
   0.750054978   0.250000746   0.999908825
   0.750070580   0.250165462   0.500092959
   0.750054978   0.749999254   0.999908825
   0.750070580   0.749834538   0.500092959
   0.249964198   0.250199122   0.249946184
   0.249990330   0.250003424   0.750003011
   0.249964198   0.749800878   0.249946184
   0.249990330   0.749996576   0.750003011
   0.750009670   0.249996576   0.250003011
   0.750035802   0.249800878   0.749946184
   0.750009670   0.750003424   0.250003011
   0.750035802   0.750199122   0.749946184
   0.250073695   0.000000000   0.999841913
   0.249879275   0.000000000   0.500214613
   0.249885720   0.500000000   0.000015210
   0.250131239   0.500000000   0.499997740
   0.749868761   0.000000000   0.999997740
   0.750114280   0.000000000   0.500015210
   0.750120725   0.500000000   0.000214613
   0.749926305   0.500000000   0.499841913
   0.000048369   0.250222096   0.000046022
   0.999951631   0.249777904   0.500046022
   0.000048369   0.749777904   0.000046022
   0.999951631   0.750222096   0.500046022
   0.499995979   0.249951819   0.000002979
   0.500004021   0.250048181   0.500002979
   0.499995979   0.750048181   0.000002979
   0.500004021   0.749951819   0.500002979
   0.999825300   0.000000000   0.250193183
   0.999980402   0.000000000   0.749740721
   0.000019598   0.500000000   0.249740721
   0.000174700   0.500000000   0.750193183
   0.500201452   0.000000000   0.249944405
   0.500001186   0.000000000   0.750048487
   0.499998814   0.500000000   0.250048487
   0.499798548   0.500000000   0.749944405
Mg28Ni4O32
   1.00000000
   8.442159245   0.000000000  -0.000000000
   0.000000000   8.442074062  -0.000000000
  -0.000000000  -0.000000000   8.442129493
  Ni  Mg  O
  4  28  32
Direct configuration=     2
   0.000385764   0.000000000   0.000542569
   0.999614236   0.500000000   0.500542569
   0.249883289   0.000000000   0.249618831
   0.750116711   0.500000000   0.749618831
   0.000511950   0.000000000   0.499530019
   0.999488050   0.500000000   0.999530019
   0.499632753   0.000000000   0.000310681
   0.499523126   0.000000000   0.499608877
   0.500476874   0.500000000   0.999608877
   0.500367247   0.500000000   0.500310681
   0.000389051   0.249524002   0.249917842
   0.999610949   0.250475998   0.749917842
   0.000389051   0.750475998   0.249917842
   0.999610949   0.749524002   0.749917842
   0.499545887   0.249758315   0.250032413
   0.500454113   0.250241685   0.750032413
   0.499545887   0.750241685   0.250032413
   0.500454113   0.749758315   0.750032413
   0.249669708   0.000000000   0.750395943
   0.249459354   0.500000000   0.250543636
   0.249595437   0.500000000   0.749555204
   0.750404563   0.000000000   0.249555204
   0.750540646   0.000000000   0.750543636
   0.750330292   0.500000000   0.250395943
   0.249607827   0.249200723   0.000459665
   0.249695458   0.249995568   0.499556588
   0.249607827   0.750799277   0.000459665
   0.249695458   0.750004432   0.499556588
   0.750304542   0.250004432   0.999556588
   0.750392173   0.250799277   0.500459665
   0.750304542   0.749995568   0.999556588
   0.750392173   0.749200723   0.500459665
   0.249790238   0.250993278   0.249726441
   0.249929752   0.250016326   0.750012088
   0.249790238   0.749006722   0.249726441
   0.249929752   0.749983674   0.750012088
   0.750070248   0.249983674   0.250012088
   0.750209762   0.249006722   0.749726441
   0.750070248   0.750016326   0.250012088
   0.750209762   0.750993278   0.749726441
   0.250336743   0.000000000   0.999216017
   0.249394675   0.000000000   0.501057444
   0.249433645   0.500000000   0.000077662
   0.250623994   0.500000000   0.499982744
   0.749376006   0.000000000   0.999982744
   0.750566355   0.000000000   0.500077662
   0.750605325   0.500000000   0.001057444
   0.749663257   0.500000000   0.499216017
   0.000247530   0.251106339   0.000238073
   0.999752470   0.248893661   0.500238073
   0.000247530   0.748893661   0.000238073
   0.999752470   0.751106339   0.500238073
   0.499987653   0.249750531   0.000010391
   0.500012347   0.250249469   0.500010391
   0.499987653   0.750249469   0.000010391
   0.500012347   0.749750531   0.500010391
   0.999138171   0.000000000   0.250973362
   0.999900080   0.000000000   0.748712055
   0.000099920   0.500000000   0.248712055
   0.000861829   0.500000000   0.750973362
   0.500994842   0.000000000   0.249710519
   0.500006982   0.000000000   0.750257437
   0.499993018   0.500000000   0.250257437
   0.499005158   0.500000000   0.749710519
Mg28Ni4O32
   1.00000000
   8.442701213   0.000000000  -0.000000000
   0.000000000   8.442593928  -0.000000000
  -0.000000000  -0.000000000   8.442664600
  Ni  Mg  O
  4  28  32
Direct configuration=     3
   0.000407436   0.000000000   0.000578250
   0.999592564   0.500000000   0.500578250
   0.249872150   0.000000000   0.249595143
   0.750127850   0.500000000   0.749595143
   0.000530822   0.000000000   0.499512907
   0.999469178   0.500000000   0.999512907
   0.499619773   0.000000000   0.000318685
   0.499513938   0.000000000   0.499596347
   0.500486062   0.500000000   0.999596347
   0.500380227   0.500000000   0.500318685
   0.000396193   0.249499307   0.249903292
   0.999603807   0.250500693   0.749903292
   0.000396193   0.750500693   0.249903292
   0.999603807   0.749499307   0.749903292
   0.499527699   0.249768133   0.250034924
   0.500472301   0.250231867   0.750034924
   0.499527699   0.750231867   0.250034924
   0.500472301   0.749768133   0.750034924
   0.249609987   0.000000000   0.750412816
   0.249368966   0.500000000   0.250561959
   0.249549612   0.500000000   0.749544850
   0.750450388   0.000000000   0.249544850
   0.750631034   0.000000000   0.750561959
   0.750390013   0.500000000   0.250412816
   0.249548441   0.249177906   0.000482090
   0.249649379   0.249994996   0.499540512
   0.249548441   0.750822094   0.000482090
   0.249649379   0.750005004   0.499540512
   0.750350621   0.250005004   0.999540512
   0.750451559   0.250822094   0.500482090
   0.750350621   0.749994996   0.999540512
   0.750451559   0.749177906   0.500482090
   0.249748013   0.251049845   0.249706502
   0.249903422   0.250016686   0.750010486
   0.249748013   0.748950155   0.249706502
   0.249903422   0.749983314   0.750010486
   0.750096578   0.249983314   0.250010486
   0.750251987   0.248950155   0.749706502
   0.750096578   0.750016686   0.250010486
   0.750251987   0.751049845   0.749706502
   0.250323999   0.000000000   0.999176921
   0.249358601   0.000000000   0.501107060
   0.249404189   0.500000000   0.000083166
   0.250628205   0.500000000   0.499976942
   0.749371795   0.000000000   0.999976942
   0.750595811   0.000000000   0.500083166
   0.750641399   0.500000000   0.001107060
   0.749676001   0.500000000   0.499176921
   0.000266850   0.251167757   0.000258996
   0.999733150   0.248832243   0.500258996
   0.000266850   0.748832243   0.000258996
   0.999733150   0.751167757   0.500258996
   0.499993647   0.249728925   0.000006884
   0.500006353   0.250271075   0.500006884
   0.499993647   0.750271075   0.000006884
   0.500006353   0.749728925   0.500006884
   0.999099075   0.000000000   0.251036575
   0.999893890   0.000000000   0.748641722
   0.000106110   0.500000000   0.248641722
   0.000900925   0.500000000   0.751036575
   0.501043393   0.000000000   0.249683516
   0.500008343   0.000000000   0.750285770
   0.499991657   0.500000000   0.250285770
   0.498956607   0.500000000   0.749683516
Mg28Ni4O32
   1.00000000
   8.452874918  -0.000000000   0.000000000
  -0.000000000   8.452351225   0.000000000
   0.000000000   0.000000000   8.452712046
  Ni  Mg  O
  4  28  32
Direct configuration=     4
   0.000624995   0.000000000   0.000996122
   0.999375005   0.500000000   0.500996122
   0.249719343   0.000000000   0.249333977
   0.750280657   0.500000000   0.749333977
   0.000631308   0.000000000   0.499429127
   0.999368692   0.500000000   0.999429127
   0.499572661   0.000000000   0.000303262
   0.499592208   0.000000000   0.499565367
   0.500407792   0.500000000   0.999565367
   0.500427339   0.500000000   0.500303262
   0.000321512   0.249267458   0.249668425
   0.999678488   0.250732542   0.749668425
   0.000321512   0.750732542   0.249668425
   0.999678488   0.749267458   0.749668425
   0.499415771   0.250105148   0.250065373
   0.500584229   0.249894852   0.750065373
   0.499415771   0.749894852   0.250065373
   0.500584229   0.750105148   0.750065373
   0.248606413   0.000000000   0.750529914
   0.247868251   0.500000000   0.250636415
   0.248880509   0.500000000   0.749577058
   0.751119491   0.000000000   0.249577058
   0.752131749   0.000000000   0.750636415
   0.751393587   0.500000000   0.250529914
   0.248596607   0.249164635   0.000670610
   0.248904904   0.249989376   0.499458753
   0.248596607   0.750835365   0.000670610
   0.248904904   0.750010624   0.499458753
   0.751095096   0.250010624   0.999458753
   0.751403393   0.250835365   0.500670610
   0.751095096   0.749989376   0.999458753
   0.751403393   0.749164635   0.500670610
   0.249013422   0.251612344   0.249463864
   0.249404052   0.250015937   0.749975431
   0.249013422   0.748387656   0.249463864
   0.249404052   0.749984063   0.749975431
   0.750595948   0.249984063   0.249975431
   0.750986578   0.248387656   0.749463864
   0.750595948   0.750015937   0.249975431
   0.750986578   0.751612344   0.749463864
   0.249852424   0.000000000   0.998844574
   0.248981702   0.000000000   0.501495246
   0.249130185   0.500000000   0.000144001
   0.250318266   0.500000000   0.499878533
   0.749681734   0.000000000   0.999878533
   0.750869815   0.000000000   0.500144001
   0.751018298   0.500000000   0.001495246
   0.750147576   0.500000000   0.498844574
   0.000508585   0.251766272   0.000535837
   0.999491415   0.248233728   0.500535837
   0.000508585   0.748233728   0.000535837
   0.999491415   0.751766272   0.500535837
   0.500115214   0.249450432   0.999931600
   0.499884786   0.250549568   0.499931600
   0.500115214   0.750549568   0.999931600
   0.499884786   0.749450432   0.499931600
   0.998811209   0.000000000   0.251750423
   0.999840608   0.000000000   0.747967120
   0.000159392   0.500000000   0.247967120
   0.001188791   0.500000000   0.751750423
   0.501449115   0.000000000   0.249315349
   0.500032803   0.000000000   0.750693726
   0.499967197   0.500000000   0.250693726
   0.498550885   0.500000000   0.749315349
Mg28Ni4O32
   1.00000000
   8.462194905  -0.000000000   0.000000000
  -0.000000000   8.461287244   0.000000000
   0.000000000   0.000000000   8.461917993
  Ni  Mg  O
  4  28  32
Direct configuration=     5
   0.000681119   0.000000000   0.001188556
   0.999318881   0.500000000   0.501188556
   0.249634407   0.000000000   0.249237570
   0.750365593   0.500000000   0.749237570
   0.000560924   0.000000000   0.499508812
   0.999439076   0.500000000   0.999508812
   0.499671108   0.000000000   0.000180477
   0.499818322   0.000000000   0.499673864
   0.500181678   0.500000000   0.999673864
   0.500328892   0.500000000   0.500180477
   0.000121576   0.249220881   0.249510809
   0.999878424   0.250779119   0.749510809
   0.000121576   0.750779119   0.249510809
   0.999878424   0.749220881   0.749510809
   0.499471070   0.250493336   0.250077195
   0.500528930   0.249506664   0.750077195
   0.499471070   0.749506664   0.250077195
   0.500528930   0.750493336   0.750077195
   0.247852936   0.000000000   0.750498337
   0.246749240   0.500000000   0.250535078
   0.248475795   0.500000000   0.749742877
   0.751524205   0.000000000   0.249742877
   0.753250760   0.000000000   0.750535078
   0.752147064   0.500000000   0.250498337
   0.247930908   0.249423020   0.000671217
   0.248371056   0.249991203   0.499525054
   0.247930908   0.750576980   0.000671217
   0.248371056   0.750008797   0.499525054
   0.751628944   0.250008797   0.999525054
   0.752069092   0.250576980   0.500671217
   0.751628944   0.749991203   0.999525054
   0.752069092   0.749423020   0.500671217
   0.248430636   0.251735919   0.249352524
   0.248970122   0.250011740   0.749946930
   0.248430636   0.748264081   0.249352524
   0.248970122   0.749988260   0.749946930
   0.751029878   0.249988260   0.249946930
   0.751569364   0.248264081   0.749352524
   0.751029878   0.750011740   0.249946930
   0.751569364   0.751735919   0.749352524
   0.249271449   0.000000000   0.998845729
   0.248872218   0.000000000   0.501443697
   0.249082893   0.500000000   0.000159854
   0.249743859   0.500000000   0.499813442
   0.750256141   0.000000000   0.999813442
   0.750917107   0.000000000   0.500159854
   0.751127782   0.500000000   0.001443697
   0.750728551   0.500000000   0.498845729
   0.000620243   0.251886219   0.000680085
   0.999379757   0.248113781   0.500680085
   0.000620243   0.748113781   0.000680085
   0.999379757   0.751886219   0.500680085
   0.500217879   0.249318168   0.999863414
   0.499782121   0.250681832   0.499863414
   0.500217879   0.750681832   0.999863414
   0.499782121   0.749318168   0.499863414
   0.998881610   0.000000000   0.252027458
   0.999859988   0.000000000   0.747844619
   0.000140012   0.500000000   0.247844619
   0.001118390   0.500000000   0.752027458
   0.501442492   0.000000000   0.249110057
   0.500052889   0.000000000   0.750935120
   0.499947111   0.500000000   0.250935120
   0.498557508   0.500000000   0.749110057
Mg28Ni4O32
   1.00000000
   8.472745280  -0.000000000   0.000000000
  -0.000000000   8.471397078   0.000000000
   0.000000000   0.000000000   8.472338464
  Ni  Mg  O
  4  28  32
Direct configuration=     6
   0.000630232   0.000000000   0.001249094
   0.999369768   0.500000000   0.501249094
   0.249601481   0.000000000   0.249253087
   0.750398519   0.500000000   0.749253087
   0.000398270   0.000000000   0.499686372
   0.999601730   0.500000000   0.999686372
   0.499883301   0.000000000   0.999984136
   0.500140896   0.000000000   0.499876847
   0.499859104   0.500000000   0.999876847
   0.500116699   0.500000000   0.499984136
   0.999834707   0.249287235   0.249424127
   0.000165293   0.250712765   0.749424127
   0.999834707   0.750712765   0.249424127
   0.000165293   0.749287235   0.749424127
   0.499636947   0.250933207   0.250071919
   0.500363053   0.249066793   0.750071919
   0.499636947   0.749066793   0.250071919
   0.500363053   0.750933207   0.750071919
   0.247263059   0.000000000   0.750370167
   0.245868577   0.500000000   0.250335834
   0.248283250   0.500000000   0.749986323
   0.751716750   0.000000000   0.249986323
   0.754131423   0.000000000   0.750335834
   0.752736941   0.500000000   0.250370167
   0.247477847   0.249863179   0.000540174
   0.247980169   0.250001094   0.499674559
   0.247477847   0.750136821   0.000540174
   0.247980169   0.749998906   0.499674559
   0.752019831   0.249998906   0.999674559
   0.752522153   0.250136821   0.500540174
   0.752019831   0.750001094   0.999674559
   0.752522153   0.749863179   0.500540174
   0.247926160   0.251540379   0.249334044
   0.248553243   0.250007435   0.749928412
   0.247926160   0.748459621   0.249334044
   0.248553243   0.749992565   0.749928412
   0.751446757   0.249992565   0.249928412
   0.752073840   0.248459621   0.749334044
   0.751446757   0.750007435   0.249928412
   0.752073840   0.751540379   0.749334044
   0.248550489   0.000000000   0.999094297
   0.248952379   0.000000000   0.501064849
   0.249181538   0.500000000   0.000135588
   0.248882241   0.500000000   0.499785732
   0.751117759   0.000000000   0.999785732
   0.750818462   0.000000000   0.500135588
   0.751047621   0.500000000   0.001064849
   0.751449511   0.500000000   0.499094297
   0.000628933   0.251664260   0.000721774
   0.999371067   0.248335740   0.500721774
   0.000628933   0.748335740   0.000721774
   0.999371067   0.751664260   0.500721774
   0.500303754   0.249305156   0.999799695
   0.499696246   0.250694844   0.499799695
   0.500303754   0.750694844   0.999799695
   0.499696246   0.749305156   0.499799695
   0.999220905   0.000000000   0.252006530
   0.999967280   0.000000000   0.748115191
   0.000032720   0.500000000   0.248115191
   0.000779095   0.500000000   0.752006530
   0.501137102   0.000000000   0.249023058
   0.500071527   0.000000000   0.751043490
   0.499928473   0.500000000   0.251043490
   0.498862898   0.500000000   0.749023058
Mg28Ni4O32
   1.00000000
   8.479054831  -0.000000000   0.000000000
  -0.000000000   8.477434876   0.000000000
   0.000000000   0.000000000   8.478566995
  Ni  Mg  O
  4  28  32
Direct configuration=     7
   0.000546082   0.000000000   0.001195412
   0.999453918   0.500000000   0.501195412
   0.249637045   0.000000000   0.249340828
   0.750362955   0.500000000   0.749340828
   0.000320515   0.000000000   0.499786745
   0.999679485   0.500000000   0.999786745
   0.500041593   0.000000000   0.999879759
   0.500289292   0.000000000   0.499997849
   0.499710708   0.500000000   0.999997849
   0.499958407   0.500000000   0.499879759
   0.999694490   0.249370510   0.249477901
   0.000305510   0.250629490   0.749477901
   0.999694490   0.750629490   0.249477901
   0.000305510   0.749370510   0.749477901
   0.499758492   0.251106434   0.250051556
   0.500241508   0.248893566   0.750051556
   0.499758492   0.748893566   0.250051556
   0.500241508   0.751106434   0.750051556
   0.247221949   0.000000000   0.750270392
   0.245783134   0.500000000   0.250237468
   0.248426512   0.500000000   0.750091604
   0.751573488   0.000000000   0.250091604
   0.754216866   0.000000000   0.750237468
   0.752778051   0.500000000   0.250270392
   0.247537245   0.250108778   0.000404471
   0.247981767   0.250010539   0.499752203
   0.247537245   0.749891222   0.000404471
   0.247981767   0.749989461   0.499752203
   0.752018233   0.249989461   0.999752203
   0.752462755   0.249891222   0.500404471
   0.752018233   0.750010539   0.999752203
   0.752462755   0.750108778   0.500404471
   0.247823605   0.251229303   0.249401893
   0.248428944   0.250009343   0.749937403
   0.247823605   0.748770697   0.249401893
   0.248428944   0.749990657   0.749937403
   0.751571056   0.249990657   0.249937403
   0.752176395   0.248770697   0.749401893
   0.751571056   0.750009343   0.249937403
   0.752176395   0.751229303   0.749401893
   0.248179199   0.000000000   0.999368972
   0.249125630   0.000000000   0.500687383
   0.249303086   0.500000000   0.000089051
   0.248313060   0.500000000   0.499824579
   0.751686940   0.000000000   0.999824579
   0.750696914   0.000000000   0.500089051
   0.750874370   0.500000000   0.000687383
   0.751820801   0.500000000   0.499368972
   0.000538596   0.251334018   0.000642058
   0.999461404   0.248665982   0.500642058
   0.000538596   0.748665982   0.000642058
   0.999461404   0.751334018   0.500642058
   0.500309194   0.249409850   0.999785278
   0.499690806   0.250590150   0.499785278
   0.500309194   0.750590150   0.999785278
   0.499690806   0.749409850   0.499785278
   0.999538141   0.000000000   0.251782038
   0.000107178   0.000000000   0.748497631
   0.999892822   0.500000000   0.248497631
   0.000461859   0.500000000   0.751782038
   0.500813059   0.000000000   0.249091635
   0.500080110   0.000000000   0.750953126
   0.499919890   0.500000000   0.250953126
   0.499186941   0.500000000   0.749091635
Mg28Ni4O32
   1.00000000
   8.485607783  -0.000000000   0.000000000
  -0.000000000   8.483695177   0.000000000
   0.000000000   0.000000000   8.485030946
  Ni  Mg  O
  4  28  32
Direct configuration=     8
   0.000466979   0.000000000   0.001108405
   0.999533021   0.500000000   0.501108405
   0.249719332   0.000000000   0.249467982
   0.750280668   0.500000000   0.749467982
   0.000353236   0.000000000   0.499799650
   0.999646764   0.500000000   0.999799650
   0.500165288   0.000000000   0.999854697
   0.500288883   0.000000000   0.500042245
   0.499711117   0.500000000   0.000042245
   0.499834712   0.500000000   0.499854697
   0.999669382   0.249433310   0.249652439
   0.000330618   0.250566690   0.749652439
   0.999669382   0.750566690   0.249652439
   0.000330618   0.749433310   0.749652439
   0.499828892   0.251098313   0.250013899
   0.500171108   0.248901687   0.750013899
   0.499828892   0.748901687   0.250013899
   0.500171108   0.751098313   0.750013899
   0.247552839   0.000000000   0.750207556
   0.246207625   0.500000000   0.250249615
   0.248827054   0.500000000   0.750071563
   0.751172946   0.000000000   0.250071563
   0.753792375   0.000000000   0.750249615
   0.752447161   0.500000000   0.250207556
   0.247965599   0.250186812   0.000277354
   0.248248273   0.250015696   0.499742127
   0.247965599   0.749813188   0.000277354
   0.248248273   0.749984304   0.499742127
   0.751751727   0.249984304   0.999742127
   0.752034401   0.249813188   0.500277354
   0.751751727   0.750015696   0.999742127
   0.752034401   0.750186812   0.500277354
   0.247982104   0.250848766   0.249526286
   0.248495654   0.250019436   0.749970803
   0.247982104   0.749151234   0.249526286
   0.248495654   0.749980564   0.749970803
   0.751504346   0.249980564   0.249970803
   0.752017896   0.249151234   0.749526286
   0.751504346   0.750019436   0.249970803
   0.752017896   0.750848766   0.749526286
   0.248003843   1.000000000   0.999663495
   0.249362235   0.000000000   0.500310887
   0.249409445   0.500000000   0.000021603
   0.247858160   0.500000000   0.499927483
   0.752141840   0.000000000   0.999927483
   0.750590555   0.000000000   0.500021603
   0.750637765   0.500000000   0.000310887
   0.751996157   0.500000000   0.499663495
   0.000372066   0.250946606   0.000471375
   0.999627934   0.249053394   0.500471375
   0.000372066   0.749053394   0.000471375
   0.999627934   0.750946606   0.500471375
   0.500253512   0.249599653   0.999804305
   0.499746488   0.250400347   0.499804305
   0.500253512   0.750400347   0.999804305
   0.499746488   0.749599653   0.499804305
   0.999839198   0.000000000   0.251448310
   0.000309460   0.000000000   0.748933820
   0.999690540   0.500000000   0.248933820
   0.000160802   0.500000000   0.751448310
   0.500488515   0.000000000   0.249255741
   0.500091465   0.000000000   0.750719776
   0.499908535   0.500000000   0.250719776
   0.499511485   0.500000000   0.749255741
Mg28Ni4O32
   1.00000000
   8.492272670  -0.000000000   0.000000000
  -0.000000000   8.490052751   0.000000000
   0.000000000   0.000000000   8.491601127
  Ni  Mg  O
  4  28  32
Direct configuration=     9
   0.000456894   1.000000000   0.001049855
   0.999543106   0.500000000   0.501049855
   0.249817883   0.000000000   0.249578712
   0.750182117   0.500000000   0.749578712
   0.000542010   0.000000000   0.499677413
   0.999457990   0.500000000   0.999677413
   0.500185011   0.000000000   0.999954601
   0.500081052   0.000000000   0.499951287
   0.499918948   0.500000000   0.999951287
   0.499814989   0.500000000   0.499954601
   0.999807973   0.249423677   0.249913698
   0.000192027   0.250576323   0.749913698
   0.999807973   0.750576323   0.249913698
   0.000192027   0.749423677   0.749913698
   0.499787002   0.250859323   0.249965451
   0.500212998   0.249140677   0.749965451
   0.499787002   0.749140677   0.249965451
   0.500212998   0.750859323   0.749965451
   0.248202585   0.000000000   0.750230318
   0.247056264   0.500000000   0.250414261
   0.249381423   0.500000000   0.749887939
   0.750618577   0.000000000   0.249887939
   0.752943736   0.000000000   0.750414261
   0.751797415   0.500000000   0.250230318
   0.248673342   0.249997377   0.000227963
   0.248723695   0.250005446   0.499604044
   0.248673342   0.750002623   0.000227963
   0.248723695   0.749994554   0.499604044
   0.751276305   0.249994554   0.999604044
   0.751326658   0.250002623   0.500227963
   0.751276305   0.750005446   0.999604044
   0.751326658   0.749997377   0.500227963
   0.248405811   0.250565966   0.249663935
   0.248786051   0.250037354   0.750020113
   0.248405811   0.749434034   0.249663935
   0.248786051   0.749962646   0.750020113
   0.751213949   0.249962646   0.250020113
   0.751594189   0.249434034   0.749663935
   0.751213949   0.750037354   0.250020113
   0.751594189   0.750565966   0.749663935
   0.248155257   1.000000000   0.999849239
   0.249576437   0.000000000   0.500111522
   0.249428336   0.500000000   0.999958977
   0.247729628   0.500000000   0.500073565
   0.752270372   1.000000000   0.000073565
   0.750571664   0.000000000   0.499958977
   0.750423563   0.500000000   0.000111522
   0.751844743   0.500000000   0.499849239
   0.000181962   0.250679360   0.000262910
   0.999818038   0.249320640   0.500262910
   0.000181962   0.749320640   0.000262910
   0.999818038   0.750679360   0.500262910
   0.500144816   0.249799269   0.999855498
   0.499855184   0.250200731   0.499855498
   0.500144816   0.750200731   0.999855498
   0.499855184   0.749799269   0.499855498
   0.999980317   0.000000000   0.251150560
   0.000519778   0.000000000   0.749216244
   0.999480222   0.500000000   0.249216244
   0.000019683   0.500000000   0.751150560
   0.500325187   0.000000000   0.249446581
   0.500112839   0.000000000   0.750421706
   0.499887161   0.500000000   0.250421706
   0.499674813   0.500000000   0.749446581
Mg28Ni4O32
   1.00000000
   8.497305182  -0.000000000   0.000000000
  -0.000000000   8.494844749   0.000000000
   0.000000000   0.000000000   8.496559366
  Ni  Mg  O
  4  28  32
Direct configuration=     10
   0.000538684   1.000000000   0.001052848
   0.999461316   0.500000000   0.501052848
   0.249876298   0.000000000   0.249613782
   0.750123702   0.500000000   0.749613782
   0.000797345   0.000000000   0.499479868
   0.999202655   0.500000000   0.999479868
   0.500076043   0.000000000   0.000141987
   0.499757600   0.000000000   0.499753809
   0.500242400   0.500000000   0.999753809
   0.499923957   0.500000000   0.500141987
   0.000046381   0.249348000   0.250131782
   0.999953619   0.250652000   0.750131782
   0.000046381   0.750652000   0.250131782
   0.999953619   0.749348000   0.750131782
   0.499643890   0.250483849   0.249926804
   0.500356110   0.249516151   0.749926804
   0.499643890   0.749516151   0.249926804
   0.500356110   0.750483849   0.749926804
   0.248872372   0.000000000   0.750331393
   0.247926234   0.500000000   0.250643583
   0.249808881   0.500000000   0.749632597
   0.750191119   0.000000000   0.249632597
   0.752073766   0.000000000   0.750643583
   0.751127628   0.500000000   0.250331393
   0.249318916   0.249623325   0.000288111
   0.249181410   0.249976156   0.499405664
   0.249318916   0.750376675   0.000288111
   0.249181410   0.750023844   0.499405664
   0.750818590   0.250023844   0.999405664
   0.750681084   0.250376675   0.500288111
   0.750818590   0.749976156   0.999405664
   0.750681084   0.749623325   0.500288111
   0.248928126   0.250537799   0.249746480
   0.249203512   0.250053355   0.750056019
   0.248928126   0.749462201   0.249746480
   0.249203512   0.749946645   0.750056019
   0.750796488   0.249946645   0.250056019
   0.751071874   0.249462201   0.749746480
   0.750796488   0.750053355   0.250056019
   0.751071874   0.750537799   0.749746480
   0.248628259   1.000000000   0.999825241
   0.249669269   0.000000000   0.500206359
   0.249345278   0.500000000   0.999940370
   0.248065598   0.500000000   0.500186482
   0.751934402   1.000000000   0.000186482
   0.750654722   0.000000000   0.499940370
   0.750330731   0.500000000   0.000206359
   0.751371741   0.500000000   0.499825241
   0.000065314   0.250681278   0.000127307
   0.999934686   0.249318722   0.500127307
   0.000065314   0.749318722   0.000127307
   0.999934686   0.750681278   0.500127307
   0.500040443   0.249884826   0.999912735
   0.499959557   0.250115174   0.499912735
   0.500040443   0.750115174   0.999912735
   0.499959557   0.749884826   0.499912735
   0.999878675   0.000000000   0.251043880
   0.000627688   0.000000000   0.749180846
   0.999372312   0.500000000   0.249180846
   0.000121325   0.500000000   0.751043880
   0.500423458   0.000000000   0.249549186
   0.500143320   0.000000000   0.750227965
   0.499856680   0.500000000   0.250227965
   0.499576542   0.500000000   0.749549186
Mg28Ni4O32
   1.00000000
   8.499257835  -0.000000000   0.000000000
  -0.000000000   8.496695709   0.000000000
   0.000000000   0.000000000   8.498481126
  Ni  Mg  O
  4  28  32
Direct configuration=     11
   0.000630988   1.000000000   0.001071577
   0.999369012   0.500000000   0.501071577
   0.249870347   0.000000000   0.249585415
   0.750129653   0.500000000   0.749585415