********************************************************************************
*                       GENERAL UTILITY LATTICE PROGRAM                        *
*                                 Julian Gale                                  *
*                       Curtin Institute for Computation                       *
*                    School of Molecular and Life Sciences                     *
*                    Curtin University, Western Australia                      *
********************************************************************************
* Version = 6.4.0 * Last modified =  22nd December 2025                        *
********************************************************************************
*  optimise     - perform optimisation run                                     *
*  conp         - constant pressure calculation                                *
********************************************************************************
*  gamma-Fe2O3 (maghemite) Fe vacancies - configuration 12                     *
********************************************************************************


  Job Started  at 07:47.21  6th April      2026                               

  Number of CPUs =     1


  Total number of configurations input =      1

********************************************************************************
*  Input for Configuration =   1                                               *
********************************************************************************

  Formula = Fe64O96

  Number of irreducible atoms/shells =     256


  Total number atoms/shells =     256

  Dimensionality = 3               :  Bulk   



  Cartesian lattice vectors (Angstroms) :

        8.344000    0.000000    0.000000
        0.000000    8.344000    0.000000
        0.000000    0.000000   25.032000

  Cell parameters (Angstroms/Degrees):

  a =       8.3440    alpha =  90.0000
  b =       8.3440    beta  =  90.0000
  c =      25.0320    gamma =  90.0000

  Initial cell volume =        1742.786315 Angs**3

  Temperature of configuration =   0.00     K 

  Pressure of configuration =         0.000 GPa 

  Fractional coordinates of asymmetric unit :

--------------------------------------------------------------------------------
   No.  Atomic       x           y          z         Charge      Occupancy
        Label      (Frac)      (Frac)     (Frac)        (e)         (Frac)  
--------------------------------------------------------------------------------
      1 Fe    c    0.625000    0.625000    0.208333     3.00000    1.000000    
      2 Fe    c    0.625000 *  0.625000 *  0.541667 *   3.00000    1.000000    
      3 Fe    c    0.125000 *  0.875000 *  0.458333 *   3.00000    1.000000    
      4 Fe    c    0.875000 *  0.375000 *  0.041667 *   3.00000    1.000000    
      5 Fe    c    0.992100 *  0.992100 *  0.330700 *   3.00000    1.000000    
      6 Fe    c    0.992100 *  0.992100 *  0.664033 *   3.00000    1.000000    
      7 Fe    c    0.992100 *  0.992100 *  0.997367 *   3.00000    1.000000    
      8 Fe    c    0.757900 *  0.242100 *  0.247367 *   3.00000    1.000000    
      9 Fe    c    0.757900 *  0.242100 *  0.580700 *   3.00000    1.000000    
     10 Fe    c    0.757900 *  0.242100 *  0.914033 *   3.00000    1.000000    
     11 Fe    c    0.507900 *  0.007900 *  0.164033 *   3.00000    1.000000    
     12 Fe    c    0.507900 *  0.007900 *  0.497367 *   3.00000    1.000000    
     13 Fe    c    0.507900 *  0.007900 *  0.830700 *   3.00000    1.000000    
     14 Fe    c    0.742100 *  0.757900 *  0.080700 *   3.00000    1.000000    
     15 Fe    c    0.742100 *  0.757900 *  0.414033 *   3.00000    1.000000    
     16 Fe    c    0.742100 *  0.757900 *  0.747367 *   3.00000    1.000000    
     17 Fe    c    0.492100 *  0.507900 *  0.002633 *   3.00000    1.000000    
     18 Fe    c    0.492100 *  0.507900 *  0.335967 *   3.00000    1.000000    
     19 Fe    c    0.492100 *  0.507900 *  0.669300 *   3.00000    1.000000    
     20 Fe    c    0.257900 *  0.257900 *  0.085967 *   3.00000    1.000000    
     21 Fe    c    0.257900 *  0.257900 *  0.419300 *   3.00000    1.000000    
     22 Fe    c    0.257900 *  0.257900 *  0.752633 *   3.00000    1.000000    
     23 Fe    c    0.007900 *  0.492100 *  0.169300 *   3.00000    1.000000    
     24 Fe    c    0.007900 *  0.492100 *  0.502633 *   3.00000    1.000000    
     25 Fe    c    0.007900 *  0.492100 *  0.835967 *   3.00000    1.000000    
     26 Fe    c    0.242100 *  0.742100 *  0.252633 *   3.00000    1.000000    
     27 Fe    c    0.242100 *  0.742100 *  0.585967 *   3.00000    1.000000    
     28 Fe    c    0.242100 *  0.742100 *  0.919300 *   3.00000    1.000000    
     29 Fe    c    0.865000 *  0.615000 *  0.291667 *   3.00000    1.000000    
     30 Fe    c    0.865000 *  0.615000 *  0.625000 *   3.00000    1.000000    
     31 Fe    c    0.865000 *  0.615000 *  0.958333 *   3.00000    1.000000    
     32 Fe    c    0.135000 *  0.115000 *  0.208333 *   3.00000    1.000000    
     33 Fe    c    0.135000 *  0.115000 *  0.541667 *   3.00000    1.000000    
     34 Fe    c    0.135000 *  0.115000 *  0.875000 *   3.00000    1.000000    
     35 Fe    c    0.635000 *  0.385000 *  0.125000 *   3.00000    1.000000    
     36 Fe    c    0.635000 *  0.385000 *  0.458333 *   3.00000    1.000000    
     37 Fe    c    0.635000 *  0.385000 *  0.791667 *   3.00000    1.000000    
     38 Fe    c    0.365000 *  0.885000 *  0.041667 *   3.00000    1.000000    
     39 Fe    c    0.365000 *  0.885000 *  0.375000 *   3.00000    1.000000    
     40 Fe    c    0.365000 *  0.885000 *  0.708333 *   3.00000    1.000000    
     41 Fe    c    0.875000 *  0.865000 *  0.205000 *   3.00000    1.000000    
     42 Fe    c    0.875000 *  0.865000 *  0.538333 *   3.00000    1.000000    
     43 Fe    c    0.875000 *  0.865000 *  0.871667 *   3.00000    1.000000    
     44 Fe    c    0.625000 *  0.135000 *  0.038333 *   3.00000    1.000000    
     45 Fe    c    0.625000 *  0.135000 *  0.371667 *   3.00000    1.000000    
     46 Fe    c    0.625000 *  0.135000 *  0.705000 *   3.00000    1.000000    
     47 Fe    c    0.375000 *  0.635000 *  0.128333 *   3.00000    1.000000    
     48 Fe    c    0.375000 *  0.635000 *  0.461667 *   3.00000    1.000000    
     49 Fe    c    0.375000 *  0.635000 *  0.795000 *   3.00000    1.000000    
     50 Fe    c    0.125000 *  0.365000 *  0.295000 *   3.00000    1.000000    
     51 Fe    c    0.125000 *  0.365000 *  0.628333 *   3.00000    1.000000    
     52 Fe    c    0.125000 *  0.365000 *  0.961667 *   3.00000    1.000000    
     53 Fe    c    0.615000 *  0.875000 *  0.288333 *   3.00000    1.000000    
     54 Fe    c    0.615000 *  0.875000 *  0.621667 *   3.00000    1.000000    
     55 Fe    c    0.615000 *  0.875000 *  0.955000 *   3.00000    1.000000    
     56 Fe    c    0.115000 *  0.625000 *  0.045000 *   3.00000    1.000000    
     57 Fe    c    0.115000 *  0.625000 *  0.378333 *   3.00000    1.000000    
     58 Fe    c    0.115000 *  0.625000 *  0.711667 *   3.00000    1.000000    
     59 Fe    c    0.385000 *  0.375000 *  0.211667 *   3.00000    1.000000    
     60 Fe    c    0.385000 *  0.375000 *  0.545000 *   3.00000    1.000000    
     61 Fe    c    0.385000 *  0.375000 *  0.878333 *   3.00000    1.000000    
     62 Fe    c    0.885000 *  0.125000 *  0.121667 *   3.00000    1.000000    
     63 Fe    c    0.885000 *  0.125000 *  0.455000 *   3.00000    1.000000    
     64 Fe    c    0.885000 *  0.125000 *  0.788333 *   3.00000    1.000000    
     65 O2    c    0.381700 *  0.381700 *  0.127233 *   0.86902    1.000000    
     66 O2    c    0.381700 *  0.381700 *  0.460567 *   0.86902    1.000000    
     67 O2    c    0.381700 *  0.381700 *  0.793900 *   0.86902    1.000000    
     68 O2    c    0.368300 *  0.631700 *  0.043900 *   0.86902    1.000000    
     69 O2    c    0.368300 *  0.631700 *  0.377233 *   0.86902    1.000000    
     70 O2    c    0.368300 *  0.631700 *  0.710567 *   0.86902    1.000000    
     71 O2    c    0.118300 *  0.618300 *  0.293900 *   0.86902    1.000000    
     72 O2    c    0.118300 *  0.618300 *  0.627233 *   0.86902    1.000000    
     73 O2    c    0.118300 *  0.618300 *  0.960567 *   0.86902    1.000000    
     74 O2    c    0.131700 *  0.368300 *  0.210567 *   0.86902    1.000000    
     75 O2    c    0.131700 *  0.368300 *  0.543900 *   0.86902    1.000000    
     76 O2    c    0.131700 *  0.368300 *  0.877233 *   0.86902    1.000000    
     77 O2    c    0.881700 *  0.118300 *  0.206100 *   0.86902    1.000000    
     78 O2    c    0.881700 *  0.118300 *  0.539433 *   0.86902    1.000000    
     79 O2    c    0.881700 *  0.118300 *  0.872767 *   0.86902    1.000000    
     80 O2    c    0.868300 *  0.868300 *  0.289433 *   0.86902    1.000000    
     81 O2    c    0.868300 *  0.868300 *  0.622767 *   0.86902    1.000000    
     82 O2    c    0.868300 *  0.868300 *  0.956100 *   0.86902    1.000000    
     83 O2    c    0.618300 *  0.881700 *  0.039433 *   0.86902    1.000000    
     84 O2    c    0.618300 *  0.881700 *  0.372767 *   0.86902    1.000000    
     85 O2    c    0.618300 *  0.881700 *  0.706100 *   0.86902    1.000000    
     86 O2    c    0.631700 *  0.131700 *  0.122767 *   0.86902    1.000000    
     87 O2    c    0.631700 *  0.131700 *  0.456100 *   0.86902    1.000000    
     88 O2    c    0.631700 *  0.131700 *  0.789433 *   0.86902    1.000000    
     89 O2    c    0.381700 *  0.873600 *  0.293967 *   0.86902    1.000000    
     90 O2    c    0.381700 *  0.873600 *  0.627300 *   0.86902    1.000000    
     91 O2    c    0.381700 *  0.873600 *  0.960633 *   0.86902    1.000000    
     92 O2    c    0.876400 *  0.631700 *  0.210633 *   0.86902    1.000000    
     93 O2    c    0.876400 *  0.631700 *  0.543967 *   0.86902    1.000000    
     94 O2    c    0.876400 *  0.631700 *  0.877300 *   0.86902    1.000000    
     95 O2    c    0.118300 *  0.126400 *  0.127300 *   0.86902    1.000000    
     96 O2    c    0.118300 *  0.126400 *  0.460633 *   0.86902    1.000000    
     97 O2    c    0.118300 *  0.126400 *  0.793967 *   0.86902    1.000000    
     98 O2    c    0.623600 *  0.368300 *  0.043967 *   0.86902    1.000000    
     99 O2    c    0.623600 *  0.368300 *  0.377300 *   0.86902    1.000000    
    100 O2    c    0.623600 *  0.368300 *  0.710633 *   0.86902    1.000000    
    101 O2    c    0.881700 *  0.626400 *  0.039367 *   0.86902    1.000000    
    102 O2    c    0.881700 *  0.626400 *  0.372700 *   0.86902    1.000000    
    103 O2    c    0.881700 *  0.626400 *  0.706033 *   0.86902    1.000000    
    104 O2    c    0.376400 *  0.868300 *  0.122700 *   0.86902    1.000000    
    105 O2    c    0.376400 *  0.868300 *  0.456033 *   0.86902    1.000000    
    106 O2    c    0.376400 *  0.868300 *  0.789367 *   0.86902    1.000000    
    107 O2    c    0.618300 *  0.373600 *  0.206033 *   0.86902    1.000000    
    108 O2    c    0.618300 *  0.373600 *  0.539367 *   0.86902    1.000000    
    109 O2    c    0.618300 *  0.373600 *  0.872700 *   0.86902    1.000000    
    110 O2    c    0.123600 *  0.131700 *  0.289367 *   0.86902    1.000000    
    111 O2    c    0.123600 *  0.131700 *  0.622700 *   0.86902    1.000000    
    112 O2    c    0.123600 *  0.131700 *  0.956033 *   0.86902    1.000000    
    113 O2    c    0.881900 *  0.381700 *  0.291200 *   0.86902    1.000000    
    114 O2    c    0.881900 *  0.381700 *  0.624533 *   0.86902    1.000000    
    115 O2    c    0.881900 *  0.381700 *  0.957867 *   0.86902    1.000000    
    116 O2    c    0.631900 *  0.876400 *  0.210567 *   0.86902    1.000000    
    117 O2    c    0.631900 *  0.876400 *  0.543900 *   0.86902    1.000000    
    118 O2    c    0.631900 *  0.876400 *  0.877233 *   0.86902    1.000000    
    119 O2    c    0.381900 *  0.118300 *  0.042133 *   0.86902    1.000000    
    120 O2    c    0.381900 *  0.118300 *  0.375467 *   0.86902    1.000000    
    121 O2    c    0.381900 *  0.118300 *  0.708800 *   0.86902    1.000000    
    122 O2    c    0.131900 *  0.623600 *  0.122767 *   0.86902    1.000000    
    123 O2    c    0.131900 *  0.623600 *  0.456100 *   0.86902    1.000000    
    124 O2    c    0.131900 *  0.623600 *  0.789433 *   0.86902    1.000000    
    125 O2    c    0.118100 *  0.881700 *  0.208800 *   0.86902    1.000000    
    126 O2    c    0.118100 *  0.881700 *  0.542133 *   0.86902    1.000000    
    127 O2    c    0.118100 *  0.881700 *  0.875467 *   0.86902    1.000000    
    128 O2    c    0.368100 *  0.376400 *  0.289433 *   0.86902    1.000000    
    129 O2    c    0.368100 *  0.376400 *  0.622767 *   0.86902    1.000000    
    130 O2    c    0.368100 *  0.376400 *  0.956100 *   0.86902    1.000000    
    131 O2    c    0.618100 *  0.618300 *  0.124533 *   0.86902    1.000000    
    132 O2    c    0.618100 *  0.618300 *  0.457867 *   0.86902    1.000000    
    133 O2    c    0.618100 *  0.618300 *  0.791200 *   0.86902    1.000000    
    134 O2    c    0.868100 *  0.123600 *  0.043900 *   0.86902    1.000000    
    135 O2    c    0.868100 *  0.123600 *  0.377233 *   0.86902    1.000000    
    136 O2    c    0.868100 *  0.123600 *  0.710567 *   0.86902    1.000000    
    137 O2    c    0.873600 *  0.881900 *  0.127233 *   0.86902    1.000000    
    138 O2    c    0.873600 *  0.881900 *  0.460567 *   0.86902    1.000000    
    139 O2    c    0.873600 *  0.881900 *  0.793900 *   0.86902    1.000000    
    140 O2    c    0.631700 *  0.631900 *  0.292133 *   0.86902    1.000000    
    141 O2    c    0.631700 *  0.631900 *  0.625467 *   0.86902    1.000000    
    142 O2    c    0.631700 *  0.631900 *  0.958800 *   0.86902    1.000000    
    143 O2    c    0.126400 *  0.381900 *  0.039433 *   0.86902    1.000000    
    144 O2    c    0.126400 *  0.381900 *  0.372767 *   0.86902    1.000000    
    145 O2    c    0.126400 *  0.381900 *  0.706100 *   0.86902    1.000000    
    146 O2    c    0.368300 *  0.131900 *  0.207867 *   0.86902    1.000000    
    147 O2    c    0.368300 *  0.131900 *  0.541200 *   0.86902    1.000000    
    148 O2    c    0.368300 *  0.131900 *  0.874533 *   0.86902    1.000000    
    149 O2    c    0.626400 *  0.118100 *  0.293900 *   0.86902    1.000000    
    150 O2    c    0.626400 *  0.118100 *  0.627233 *   0.86902    1.000000    
    151 O2    c    0.626400 *  0.118100 *  0.960567 *   0.86902    1.000000    
    152 O2    c    0.868300 *  0.368100 *  0.125467 *   0.86902    1.000000    
    153 O2    c    0.868300 *  0.368100 *  0.458800 *   0.86902    1.000000    
    154 O2    c    0.868300 *  0.368100 *  0.792133 *   0.86902    1.000000    
    155 O2    c    0.373600 *  0.618100 *  0.206100 *   0.86902    1.000000    
    156 O2    c    0.373600 *  0.618100 *  0.539433 *   0.86902    1.000000    
    157 O2    c    0.373600 *  0.618100 *  0.872767 *   0.86902    1.000000    
    158 O2    c    0.131700 *  0.868100 *  0.041200 *   0.86902    1.000000    
    159 O2    c    0.131700 *  0.868100 *  0.374533 *   0.86902    1.000000    
    160 O2    c    0.131700 *  0.868100 *  0.707867 *   0.86902    1.000000    
    161 O2    s    0.381700 *  0.381700 *  0.127233 *  -2.86902    1.000000    
    162 O2    s    0.381700 *  0.381700 *  0.460567 *  -2.86902    1.000000    
    163 O2    s    0.381700 *  0.381700 *  0.793900 *  -2.86902    1.000000    
    164 O2    s    0.368300 *  0.631700 *  0.043900 *  -2.86902    1.000000    
    165 O2    s    0.368300 *  0.631700 *  0.377233 *  -2.86902    1.000000    
    166 O2    s    0.368300 *  0.631700 *  0.710567 *  -2.86902    1.000000    
    167 O2    s    0.118300 *  0.618300 *  0.293900 *  -2.86902    1.000000    
    168 O2    s    0.118300 *  0.618300 *  0.627233 *  -2.86902    1.000000    
    169 O2    s    0.118300 *  0.618300 *  0.960567 *  -2.86902    1.000000    
    170 O2    s    0.131700 *  0.368300 *  0.210567 *  -2.86902    1.000000    
    171 O2    s    0.131700 *  0.368300 *  0.543900 *  -2.86902    1.000000    
    172 O2    s    0.131700 *  0.368300 *  0.877233 *  -2.86902    1.000000    
    173 O2    s    0.881700 *  0.118300 *  0.206100 *  -2.86902    1.000000    
    174 O2    s    0.881700 *  0.118300 *  0.539433 *  -2.86902    1.000000    
    175 O2    s    0.881700 *  0.118300 *  0.872767 *  -2.86902    1.000000    
    176 O2    s    0.868300 *  0.868300 *  0.289433 *  -2.86902    1.000000    
    177 O2    s    0.868300 *  0.868300 *  0.622767 *  -2.86902    1.000000    
    178 O2    s    0.868300 *  0.868300 *  0.956100 *  -2.86902    1.000000    
    179 O2    s    0.618300 *  0.881700 *  0.039433 *  -2.86902    1.000000    
    180 O2    s    0.618300 *  0.881700 *  0.372767 *  -2.86902    1.000000    
    181 O2    s    0.618300 *  0.881700 *  0.706100 *  -2.86902    1.000000    
    182 O2    s    0.631700 *  0.131700 *  0.122767 *  -2.86902    1.000000    
    183 O2    s    0.631700 *  0.131700 *  0.456100 *  -2.86902    1.000000    
    184 O2    s    0.631700 *  0.131700 *  0.789433 *  -2.86902    1.000000    
    185 O2    s    0.381700 *  0.873600 *  0.293967 *  -2.86902    1.000000    
    186 O2    s    0.381700 *  0.873600 *  0.627300 *  -2.86902    1.000000    
    187 O2    s    0.381700 *  0.873600 *  0.960633 *  -2.86902    1.000000    
    188 O2    s    0.876400 *  0.631700 *  0.210633 *  -2.86902    1.000000    
    189 O2    s    0.876400 *  0.631700 *  0.543967 *  -2.86902    1.000000    
    190 O2    s    0.876400 *  0.631700 *  0.877300 *  -2.86902    1.000000    
    191 O2    s    0.118300 *  0.126400 *  0.127300 *  -2.86902    1.000000    
    192 O2    s    0.118300 *  0.126400 *  0.460633 *  -2.86902    1.000000    
    193 O2    s    0.118300 *  0.126400 *  0.793967 *  -2.86902    1.000000    
    194 O2    s    0.623600 *  0.368300 *  0.043967 *  -2.86902    1.000000    
    195 O2    s    0.623600 *  0.368300 *  0.377300 *  -2.86902    1.000000    
    196 O2    s    0.623600 *  0.368300 *  0.710633 *  -2.86902    1.000000    
    197 O2    s    0.881700 *  0.626400 *  0.039367 *  -2.86902    1.000000    
    198 O2    s    0.881700 *  0.626400 *  0.372700 *  -2.86902    1.000000    
    199 O2    s    0.881700 *  0.626400 *  0.706033 *  -2.86902    1.000000    
    200 O2    s    0.376400 *  0.868300 *  0.122700 *  -2.86902    1.000000    
    201 O2    s    0.376400 *  0.868300 *  0.456033 *  -2.86902    1.000000    
    202 O2    s    0.376400 *  0.868300 *  0.789367 *  -2.86902    1.000000    
    203 O2    s    0.618300 *  0.373600 *  0.206033 *  -2.86902    1.000000    
    204 O2    s    0.618300 *  0.373600 *  0.539367 *  -2.86902    1.000000    
    205 O2    s    0.618300 *  0.373600 *  0.872700 *  -2.86902    1.000000    
    206 O2    s    0.123600 *  0.131700 *  0.289367 *  -2.86902    1.000000    
    207 O2    s    0.123600 *  0.131700 *  0.622700 *  -2.86902    1.000000    
    208 O2    s    0.123600 *  0.131700 *  0.956033 *  -2.86902    1.000000    
    209 O2    s    0.881900 *  0.381700 *  0.291200 *  -2.86902    1.000000    
    210 O2    s    0.881900 *  0.381700 *  0.624533 *  -2.86902    1.000000    
    211 O2    s    0.881900 *  0.381700 *  0.957867 *  -2.86902    1.000000    
    212 O2    s    0.631900 *  0.876400 *  0.210567 *  -2.86902    1.000000    
    213 O2    s    0.631900 *  0.876400 *  0.543900 *  -2.86902    1.000000    
    214 O2    s    0.631900 *  0.876400 *  0.877233 *  -2.86902    1.000000    
    215 O2    s    0.381900 *  0.118300 *  0.042133 *  -2.86902    1.000000    
    216 O2    s    0.381900 *  0.118300 *  0.375467 *  -2.86902    1.000000    
    217 O2    s    0.381900 *  0.118300 *  0.708800 *  -2.86902    1.000000    
    218 O2    s    0.131900 *  0.623600 *  0.122767 *  -2.86902    1.000000    
    219 O2    s    0.131900 *  0.623600 *  0.456100 *  -2.86902    1.000000    
    220 O2    s    0.131900 *  0.623600 *  0.789433 *  -2.86902    1.000000    
    221 O2    s    0.118100 *  0.881700 *  0.208800 *  -2.86902    1.000000    
    222 O2    s    0.118100 *  0.881700 *  0.542133 *  -2.86902    1.000000    
    223 O2    s    0.118100 *  0.881700 *  0.875467 *  -2.86902    1.000000    
    224 O2    s    0.368100 *  0.376400 *  0.289433 *  -2.86902    1.000000    
    225 O2    s    0.368100 *  0.376400 *  0.622767 *  -2.86902    1.000000    
    226 O2    s    0.368100 *  0.376400 *  0.956100 *  -2.86902    1.000000    
    227 O2    s    0.618100 *  0.618300 *  0.124533 *  -2.86902    1.000000    
    228 O2    s    0.618100 *  0.618300 *  0.457867 *  -2.86902    1.000000    
    229 O2    s    0.618100 *  0.618300 *  0.791200 *  -2.86902    1.000000    
    230 O2    s    0.868100 *  0.123600 *  0.043900 *  -2.86902    1.000000    
    231 O2    s    0.868100 *  0.123600 *  0.377233 *  -2.86902    1.000000    
    232 O2    s    0.868100 *  0.123600 *  0.710567 *  -2.86902    1.000000    
    233 O2    s    0.873600 *  0.881900 *  0.127233 *  -2.86902    1.000000    
    234 O2    s    0.873600 *  0.881900 *  0.460567 *  -2.86902    1.000000    
    235 O2    s    0.873600 *  0.881900 *  0.793900 *  -2.86902    1.000000    
    236 O2    s    0.631700 *  0.631900 *  0.292133 *  -2.86902    1.000000    
    237 O2    s    0.631700 *  0.631900 *  0.625467 *  -2.86902    1.000000    
    238 O2    s    0.631700 *  0.631900 *  0.958800 *  -2.86902    1.000000    
    239 O2    s    0.126400 *  0.381900 *  0.039433 *  -2.86902    1.000000    
    240 O2    s    0.126400 *  0.381900 *  0.372767 *  -2.86902    1.000000    
    241 O2    s    0.126400 *  0.381900 *  0.706100 *  -2.86902    1.000000    
    242 O2    s    0.368300 *  0.131900 *  0.207867 *  -2.86902    1.000000    
    243 O2    s    0.368300 *  0.131900 *  0.541200 *  -2.86902    1.000000    
    244 O2    s    0.368300 *  0.131900 *  0.874533 *  -2.86902    1.000000    
    245 O2    s    0.626400 *  0.118100 *  0.293900 *  -2.86902    1.000000    
    246 O2    s    0.626400 *  0.118100 *  0.627233 *  -2.86902    1.000000    
    247 O2    s    0.626400 *  0.118100 *  0.960567 *  -2.86902    1.000000    
    248 O2    s    0.868300 *  0.368100 *  0.125467 *  -2.86902    1.000000    
    249 O2    s    0.868300 *  0.368100 *  0.458800 *  -2.86902    1.000000    
    250 O2    s    0.868300 *  0.368100 *  0.792133 *  -2.86902    1.000000    
    251 O2    s    0.373600 *  0.618100 *  0.206100 *  -2.86902    1.000000    
    252 O2    s    0.373600 *  0.618100 *  0.539433 *  -2.86902    1.000000    
    253 O2    s    0.373600 *  0.618100 *  0.872767 *  -2.86902    1.000000    
    254 O2    s    0.131700 *  0.868100 *  0.041200 *  -2.86902    1.000000    
    255 O2    s    0.131700 *  0.868100 *  0.374533 *  -2.86902    1.000000    
    256 O2    s    0.131700 *  0.868100 *  0.707867 *  -2.86902    1.000000    
--------------------------------------------------------------------------------



********************************************************************************
*  General input information                                                   *
********************************************************************************

  Species output for all configurations : 

--------------------------------------------------------------------------------
  Species    Type    Atomic    Atomic    Charge       Radii (Angs)     Library
                     Number     Mass       (e)     Cova   Ionic  VDW   Symbol
--------------------------------------------------------------------------------
    Fe       Core       26      55.85   3.000000   1.340  0.000  2.000          
    O2       Core        8      16.00   0.869020   0.730  0.000  1.360          
    O2       Shell       8       0.00  -2.869020   0.730  0.000  1.360          
--------------------------------------------------------------------------------


  Lattice summation method               =    Ewald          (3-D)
                                         =    Parry          (2-D)
                                         =    Saunders et al (1-D)
  Accuracy factor for lattice sums       =   12.000


  Analytic derivatives to be used

  Time limit = Infinity

  Maximum range for interatomic potentials =    100000.000000 Angstroms

  General interatomic potentials :

--------------------------------------------------------------------------------
Atom  Types   Potential      Parameter       Value         Units   Cutoffs(Ang)
  1     2                                                            Min /  Max 
--------------------------------------------------------------------------------
Fe   c O2   s Buckingham    Buckingham A     1102.4000    eV        0.000 10.000
                            Buckingham rho  0.32990000    Ang       
                            Buckingham C     0.0000000    eV*Ang^6  
--------------------------------------------------------------------------------
O2   s O2   s Buckingham    Buckingham A     22764.000    eV        0.000 12.000
                            Buckingham rho  0.14900000    Ang       
                            Buckingham C     27.879000    eV*Ang^6  
--------------------------------------------------------------------------------
O2   c O2   s Spring (c-s)  Spring k 2       74.920000    eV*Ang^-2 0.000  0.800
                            Spring k 4       0.0000000    eV*Ang^-4 
--------------------------------------------------------------------------------

********************************************************************************
*  Output for configuration   1                                                *
********************************************************************************


  Components of energy : 

--------------------------------------------------------------------------------
  Interatomic potentials     =         905.54763506 eV    
  Monopole - monopole (real) =       -3801.80054641 eV    
  Monopole - monopole (recip)=       -1793.86526995 eV    
  Monopole - monopole (total)=       -5595.66581636 eV    
--------------------------------------------------------------------------------
  Total lattice energy       =       -4690.11818130 eV    
--------------------------------------------------------------------------------
  Total lattice energy       =         -452524.7095 kJ/(mole unit cells)
--------------------------------------------------------------------------------


  Number of variables =      771

  Maximum number of calculations  =          1000
  Maximum Hessian update interval =            10
  Maximum step size               =   1.000000000
  Maximum parameter tolerance     =   0.000010000
  Maximum function  tolerance     =   0.000010000
  Maximum gradient  tolerance     =   0.001000000
  Maximum gradient  component     =   0.010000000

  Symmetry not applied to optimisation

  Cell parameters to be optimised using strains

  Newton-Raphson optimiser to be used

  BFGS hessian update to be used

  Hessian eigenvalue shifts to be used to ensure all values are positive

  Lower half triangular hessian to be used

  Start of bulk optimisation :

  Cycle:      0 Energy:     -4690.118181  Gnorm:      4.387751  CPU:    0.302
  ** Hessian lowest eigenvalue is negative =  -2.704E+01
  ** Hessian calculated **
  Cycle:      1 Energy:     -4717.382901  Gnorm:      3.459895  CPU:    0.766
  ** Hessian lowest eigenvalue is negative =  -8.912E+02
  ** Hessian calculated **
  Cycle:      2 Energy:     -4742.926109  Gnorm:      2.686073  CPU:    1.439
  ** Hessian lowest eigenvalue is negative =  -1.503E+02
  ** Hessian calculated **
  Cycle:      3 Energy:     -4754.023449  Gnorm:      2.356036  CPU:    2.112
  ** Hessian lowest eigenvalue is negative =  -5.501E+01
  ** Hessian calculated **
  Cycle:      4 Energy:     -4761.420100  Gnorm:      2.149125  CPU:    2.742
  Cycle:      5 Energy:     -4769.502383  Gnorm:      1.831733  CPU:    2.977
  Cycle:      6 Energy:     -4794.708980  Gnorm:      0.310433  CPU:    3.212
  ** Hessian calculated **
  Cycle:      7 Energy:     -4798.229482  Gnorm:      0.169562  CPU:    3.801
  Cycle:      8 Energy:     -4799.126892  Gnorm:      0.072602  CPU:    3.994
  Cycle:      9 Energy:     -4799.424877  Gnorm:      0.022558  CPU:    4.186
  Cycle:     10 Energy:     -4799.444339  Gnorm:      0.008455  CPU:    4.421
  Cycle:     11 Energy:     -4799.448597  Gnorm:      0.004122  CPU:    4.614
  Cycle:     12 Energy:     -4799.449419  Gnorm:      0.002533  CPU:    4.850
  Cycle:     13 Energy:     -4799.449751  Gnorm:      0.001277  CPU:    5.086
  Cycle:     14 Energy:     -4799.449834  Gnorm:      0.000652  CPU:    5.278
  Cycle:     15 Energy:     -4799.449855  Gnorm:      0.000417  CPU:    5.471
  Cycle:     16 Energy:     -4799.449860  Gnorm:      0.000151  CPU:    5.663
  ** Hessian calculated **
  Cycle:     17 Energy:     -4799.449860  Gnorm:      0.000076  CPU:    6.253
  Cycle:     18 Energy:     -4799.449861  Gnorm:      0.000038  CPU:    6.445


  **** Optimisation achieved ****


  Final energy =   -4799.44986071 eV      
  Final Gnorm  =       0.00001891

  Components of energy : 

--------------------------------------------------------------------------------
  Interatomic potentials     =         967.35935762 eV    
  Monopole - monopole (real) =       -3033.94393915 eV    
  Monopole - monopole (recip)=       -2732.86527917 eV    
  Monopole - monopole (total)=       -5766.80921833 eV    
--------------------------------------------------------------------------------
  Total lattice energy       =       -4799.44986071 eV    
--------------------------------------------------------------------------------
  Total lattice energy       =         -463073.5452 kJ/(mole unit cells)
--------------------------------------------------------------------------------

  Final fractional coordinates of atoms :

--------------------------------------------------------------------------------
   No.  Atomic        x           y          z          Radius
        Label       (Frac)      (Frac)     (Frac)       (Angs) 
--------------------------------------------------------------------------------
     1  Fe    c     0.625000    0.625000    0.208333    0.000000
     2  Fe    c     0.626303    0.645524    0.544401    0.000000
     3  Fe    c     0.127544    0.886059    0.459305    0.000000
     4  Fe    c     0.874383    0.380334    0.040697    0.000000
     5  Fe    c     0.985732    0.987198    0.331008    0.000000
     6  Fe    c     0.989232    0.012003    0.667225    0.000000
     7  Fe    c     0.990507    0.006196    0.991242    0.000000
     8  Fe    c     0.770127    0.243156    0.248577    0.000000
     9  Fe    c     0.776230    0.269284    0.581480    0.000000
    10  Fe    c     0.766325    0.249043    0.912981    0.000000
    11  Fe    c     0.507776    0.000712    0.159859    0.000000
    12  Fe    c     0.503482    0.020381    0.493576    0.000000
    13  Fe    c     0.522143    0.039788    0.829453    0.000000
    14  Fe    c     0.731768    0.757024    0.078781    0.000000
    15  Fe    c     0.756076    0.777098    0.416684    0.000000
    16  Fe    c     0.739127    0.794036    0.749219    0.000000
    17  Fe    c     0.492752    0.535364    0.000552    0.000000
    18  Fe    c     0.485650    0.515911    0.334551    0.000000
    19  Fe    c     0.486226    0.539246    0.673324    0.000000
    20  Fe    c     0.246521    0.263191    0.089044    0.000000
    21  Fe    c     0.272966    0.260930    0.423925    0.000000
    22  Fe    c     0.271507    0.291920    0.756835    0.000000
    23  Fe    c     0.002572    0.477389    0.168683    0.000000
    24  Fe    c     0.997838    0.507486    0.513822    0.000000
    25  Fe    c     0.023451    0.507775    0.835875    0.000000
    26  Fe    c     0.248895    0.730248    0.254973    0.000000
    27  Fe    c     0.255320    0.753973    0.591006    0.000000
    28  Fe    c     0.239321    0.753205    0.921064    0.000000
    29  Fe    c     0.867280    0.609229    0.297179    0.000000
    30  Fe    c     0.869705    0.640709    0.631784    0.000000
    31  Fe    c     0.865380    0.629901    0.952638    0.000000
    32  Fe    c     0.145042    0.101892    0.210204    0.000000
    33  Fe    c     0.143434    0.133500    0.547144    0.000000
    34  Fe    c     0.149222    0.129366    0.874556    0.000000
    35  Fe    c     0.623197    0.376464    0.125312    0.000000
    36  Fe    c     0.645068    0.400248    0.454904    0.000000
    37  Fe    c     0.652042    0.420033    0.792955    0.000000
    38  Fe    c     0.354081    0.900235    0.041985    0.000000
    39  Fe    c     0.368041    0.894629    0.371373    0.000000
    40  Fe    c     0.363218    0.924166    0.710819    0.000000
    41  Fe    c     0.889649    0.858576    0.203983    0.000000
    42  Fe    c     0.876205    0.896418    0.541261    0.000000
    43  Fe    c     0.883860    0.884032    0.868382    0.000000
    44  Fe    c     0.610596    0.140786    0.036254    0.000000
    45  Fe    c     0.628387    0.149676    0.370119    0.000000
    46  Fe    c     0.627059    0.174614    0.704383    0.000000
    47  Fe    c     0.357605    0.637972    0.129085    0.000000
    48  Fe    c     0.377328    0.637629    0.460178    0.000000
    49  Fe    c     0.387039    0.668493    0.799945    0.000000
    50  Fe    c     0.126196    0.351964    0.299052    0.000000
    51  Fe    c     0.134554    0.385904    0.633037    0.000000
    52  Fe    c     0.144134    0.376230    0.962005    0.000000
    53  Fe    c     0.616756    0.888723    0.288499    0.000000
    54  Fe    c     0.610289    0.920429    0.622770    0.000000
    55  Fe    c     0.611865    0.889070    0.952453    0.000000
    56  Fe    c     0.109406    0.647222    0.047398    0.000000
    57  Fe    c     0.112582    0.612575    0.380931    0.000000
    58  Fe    c     0.119630    0.657389    0.717340    0.000000
    59  Fe    c     0.381577    0.356709    0.214654    0.000000
    60  Fe    c     0.393313    0.379299    0.547984    0.000000
    61  Fe    c     0.401251    0.392171    0.880270    0.000000
    62  Fe    c     0.886813    0.110435    0.121999    0.000000
    63  Fe    c     0.892276    0.155994    0.452654    0.000000
    64  Fe    c     0.897657    0.157001    0.786112    0.000000
    65  O2    c     0.390223    0.391283    0.133347    0.000000
    66  O2    c     0.401827    0.407070    0.463585    0.000000
    67  O2    c     0.408784    0.423217    0.798725    0.000000
    68  O2    c     0.351603    0.641089    0.051154    0.000000
    69  O2    c     0.357342    0.646336    0.382085    0.000000
    70  O2    c     0.358611    0.680605    0.712033    0.000000
    71  O2    c     0.106157    0.609500    0.300730    0.000000
    72  O2    c     0.101376    0.630031    0.623562    0.000000
    73  O2    c     0.104726    0.615775    0.968930    0.000000
    74  O2    c     0.143861    0.356016    0.216620    0.000000
    75  O2    c     0.158270    0.371750    0.542874    0.000000
    76  O2    c     0.151668    0.377075    0.884108    0.000000
    77  O2    c     0.890062    0.100487    0.204150    0.000000
    78  O2    c     0.897871    0.127575    0.533804    0.000000
    79  O2    c     0.904792    0.125581    0.869974    0.000000
    80  O2    c     0.855349    0.852734    0.286514    0.000000
    81  O2    c     0.855754    0.886246    0.616853    0.000000
    82  O2    c     0.856552    0.864033    0.956005    0.000000
    83  O2    c     0.603175    0.906996    0.040746    0.000000
    84  O2    c     0.609160    0.892516    0.371053    0.000000
    85  O2    c     0.609179    0.924664    0.699263    0.000000
    86  O2    c     0.642775    0.145352    0.123211    0.000000
    87  O2    c     0.650874    0.155819    0.453896    0.000000
    88  O2    c     0.652119    0.176824    0.784554    0.000000
    89  O2    c     0.393023    0.837698    0.297894    0.000000
    90  O2    c     0.395262    0.880560    0.622450    0.000000
    91  O2    c     0.391693    0.842569    0.967664    0.000000
    92  O2    c     0.865362    0.625404    0.210846    0.000000
    93  O2    c     0.858234    0.666640    0.540069    0.000000
    94  O2    c     0.915570    0.654757    0.879276    0.000000
    95  O2    c     0.105245    0.161099    0.134830    0.000000
    96  O2    c     0.122032    0.124146    0.460366    0.000000
    97  O2    c     0.120480    0.182719    0.795894    0.000000
    98  O2    c     0.629830    0.377605    0.046511    0.000000
    99  O2    c     0.604130    0.379052    0.378608    0.000000
   100  O2    c     0.614361    0.397245    0.707330    0.000000
   101  O2    c     0.881916    0.616689    0.047316    0.000000
   102  O2    c     0.889184    0.660965    0.373314    0.000000
   103  O2    c     0.892979    0.693579    0.703854    0.000000
   104  O2    c     0.395721    0.857997    0.121421    0.000000
   105  O2    c     0.364640    0.873287    0.455201    0.000000
   106  O2    c     0.417531    0.891439    0.787404    0.000000
   107  O2    c     0.620570    0.381398    0.208218    0.000000
   108  O2    c     0.623489    0.405137    0.537499    0.000000
   109  O2    c     0.624640    0.371459    0.874703    0.000000
   110  O2    c     0.101247    0.127962    0.289583    0.000000
   111  O2    c     0.088041    0.162427    0.619486    0.000000
   112  O2    c     0.099749    0.160249    0.956786    0.000000
   113  O2    c     0.894685    0.388050    0.283588    0.000000
   114  O2    c     0.907972    0.430174    0.600828    0.000000
   115  O2    c     0.879602    0.398012    0.962892    0.000000
   116  O2    c     0.631587    0.862324    0.211417    0.000000
   117  O2    c     0.634022    0.890027    0.538363    0.000000
   118  O2    c     0.647970    0.927020    0.879403    0.000000
   119  O2    c     0.386488    0.126204    0.055917    0.000000
   120  O2    c     0.402719    0.113127    0.389752    0.000000
   121  O2    c     0.392110    0.148149    0.716039    0.000000
   122  O2    c     0.134092    0.596339    0.126001    0.000000
   123  O2    c     0.132854    0.643325    0.460104    0.000000
   124  O2    c     0.151944    0.622688    0.790096    0.000000
   125  O2    c     0.114423    0.873641    0.219996    0.000000
   126  O2    c     0.123675    0.895412    0.539511    0.000000
   127  O2    c     0.111753    0.909971    0.891807    0.000000
   128  O2    c     0.356060    0.409325    0.288325    0.000000
   129  O2    c     0.361363    0.445994    0.618231    0.000000
   130  O2    c     0.369807    0.412851    0.959379    0.000000
   131  O2    c     0.612976    0.613123    0.129575    0.000000
   132  O2    c     0.621774    0.639556    0.459508    0.000000
   133  O2    c     0.615818    0.639643    0.779310    0.000000
   134  O2    c     0.866912    0.143447    0.046077    0.000000
   135  O2    c     0.857633    0.095801    0.379843    0.000000
   136  O2    c     0.861773    0.130446    0.709624    0.000000
   137  O2    c     0.840108    0.883990    0.129099    0.000000
   138  O2    c     0.892852    0.899111    0.461726    0.000000
   139  O2    c     0.854583    0.917957    0.794167    0.000000
   140  O2    c     0.635362    0.630534    0.289348    0.000000
   141  O2    c     0.638504    0.658384    0.621567    0.000000
   142  O2    c     0.654026    0.660050    0.978415    0.000000
   143  O2    c     0.112149    0.388684    0.042819    0.000000
   144  O2    c     0.154623    0.386549    0.376321    0.000000
   145  O2    c     0.164484    0.423656    0.704787    0.000000
   146  O2    c     0.372587    0.129067    0.201815    0.000000
   147  O2    c     0.365440    0.156657    0.526819    0.000000
   148  O2    c     0.371109    0.160859    0.865524    0.000000
   149  O2    c     0.652135    0.115929    0.294447    0.000000
   150  O2    c     0.650176    0.145281    0.622306    0.000000
   151  O2    c     0.665989    0.120712    0.965013    0.000000
   152  O2    c     0.857786    0.364209    0.125354    0.000000
   153  O2    c     0.871093    0.382259    0.468444    0.000000
   154  O2    c     0.872318    0.388850    0.802258    0.000000
   155  O2    c     0.387201    0.614722    0.207789    0.000000
   156  O2    c     0.393266    0.637572    0.536958    0.000000
   157  O2    c     0.357093    0.630242    0.875251    0.000000
   158  O2    c     0.125605    0.876688    0.035384    0.000000
   159  O2    c     0.135252    0.871202    0.378749    0.000000
   160  O2    c     0.147236    0.883286    0.693076    0.000000
   161  O2    s     0.391913    0.391157    0.133545    0.000000
   162  O2    s     0.401634    0.408970    0.463375    0.000000
   163  O2    s     0.408651    0.423022    0.798943    0.000000
   164  O2    s     0.350940    0.641182    0.051809    0.000000
   165  O2    s     0.357609    0.645711    0.382714    0.000000
   166  O2    s     0.358850    0.679407    0.711568    0.000000
   167  O2    s     0.105361    0.609862    0.301183    0.000000
   168  O2    s     0.102082    0.631151    0.623187    0.000000
   169  O2    s     0.104157    0.615106    0.969390    0.000000
   170  O2    s     0.145134    0.355841    0.216648    0.000000
   171  O2    s     0.157839    0.371325    0.542852    0.000000
   172  O2    s     0.151400    0.377180    0.884701    0.000000
   173  O2    s     0.889551    0.100063    0.204034    0.000000
   174  O2    s     0.898013    0.125426    0.533825    0.000000
   175  O2    s     0.903911    0.125479    0.870217    0.000000
   176  O2    s     0.854857    0.852837    0.286611    0.000000
   177  O2    s     0.855640    0.885935    0.615666    0.000000
   178  O2    s     0.857665    0.863651    0.956178    0.000000
   179  O2    s     0.603992    0.907790    0.041086    0.000000
   180  O2    s     0.609140    0.892098    0.370940    0.000000
   181  O2    s     0.608897    0.924934    0.698306    0.000000
   182  O2    s     0.641518    0.146510    0.123497    0.000000
   183  O2    s     0.651273    0.156748    0.453640    0.000000
   184  O2    s     0.652132    0.177114    0.784248    0.000000
   185  O2    s     0.393060    0.836559    0.298425    0.000000
   186  O2    s     0.396830    0.875648    0.621627    0.000000
   187  O2    s     0.392095    0.842204    0.967773    0.000000
   188  O2    s     0.864120    0.627838    0.210707    0.000000
   189  O2    s     0.857579    0.667195    0.539980    0.000000
   190  O2    s     0.917171    0.654997    0.880040    0.000000
   191  O2    s     0.104971    0.162240    0.134641    0.000000
   192  O2    s     0.120428    0.123411    0.460101    0.000000
   193  O2    s     0.119851    0.185550    0.795699    0.000000
   194  O2    s     0.631279    0.375090    0.047491    0.000000
   195  O2    s     0.600892    0.378439    0.378835    0.000000
   196  O2    s     0.608434    0.395995    0.706592    0.000000
   197  O2    s     0.883301    0.616833    0.047733    0.000000
   198  O2    s     0.889883    0.663378    0.373332    0.000000
   199  O2    s     0.893505    0.694102    0.702866    0.000000
   200  O2    s     0.398945    0.857357    0.121827    0.000000
   201  O2    s     0.363069    0.871736    0.455071    0.000000
   202  O2    s     0.419450    0.890512    0.787441    0.000000
   203  O2    s     0.619710    0.381983    0.207920    0.000000
   204  O2    s     0.621169    0.406575    0.537405    0.000000
   205  O2    s     0.623574    0.367047    0.875234    0.000000
   206  O2    s     0.097821    0.129022    0.289928    0.000000
   207  O2    s     0.087945    0.162954    0.618693    0.000000
   208  O2    s     0.096652    0.160920    0.957400    0.000000
   209  O2    s     0.893956    0.388804    0.282870    0.000000
   210  O2    s     0.905090    0.428296    0.600882    0.000000
   211  O2    s     0.879147    0.400585    0.963791    0.000000
   212  O2    s     0.631085    0.860518    0.212325    0.000000
   213  O2    s     0.633792    0.890503    0.538158    0.000000
   214  O2    s     0.646781    0.929275    0.880106    0.000000
   215  O2    s     0.385903    0.126055    0.056493    0.000000
   216  O2    s     0.402034    0.112934    0.390178    0.000000
   217  O2    s     0.391999    0.146352    0.717243    0.000000
   218  O2    s     0.134950    0.593257    0.126164    0.000000
   219  O2    s     0.134663    0.645287    0.459124    0.000000
   220  O2    s     0.150103    0.619907    0.789182    0.000000
   221  O2    s     0.114180    0.873916    0.220784    0.000000
   222  O2    s     0.122526    0.897774    0.538861    0.000000
   223  O2    s     0.113666    0.909609    0.892153    0.000000
   224  O2    s     0.357376    0.411200    0.288076    0.000000
   225  O2    s     0.361557    0.445472    0.617589    0.000000
   226  O2    s     0.369604    0.417759    0.959609    0.000000
   227  O2    s     0.612921    0.611125    0.130391    0.000000
   228  O2    s     0.621725    0.638360    0.459418    0.000000
   229  O2    s     0.617440    0.639337    0.778844    0.000000
   230  O2    s     0.866876    0.145724    0.047340    0.000000
   231  O2    s     0.858030    0.094610    0.380094    0.000000
   232  O2    s     0.863591    0.126099    0.709653    0.000000
   233  O2    s     0.839030    0.885407    0.129564    0.000000
   234  O2    s     0.894213    0.898119    0.462116    0.000000
   235  O2    s     0.851037    0.915985    0.794754    0.000000
   236  O2    s     0.636844    0.629741    0.289092    0.000000
   237  O2    s     0.641392    0.658191    0.620412    0.000000
   238  O2    s     0.652396    0.657613    0.978207    0.000000
   239  O2    s     0.111679    0.387186    0.042704    0.000000
   240  O2    s     0.157686    0.387669    0.376312    0.000000
   241  O2    s     0.166088    0.422869    0.703650    0.000000
   242  O2    s     0.370992    0.130441    0.200786    0.000000
   243  O2    s     0.365989    0.155939    0.526353    0.000000
   244  O2    s     0.370273    0.160532    0.864623    0.000000
   245  O2    s     0.655562    0.115343    0.294816    0.000000
   246  O2    s     0.655123    0.144618    0.621791    0.000000
   247  O2    s     0.666471    0.121327    0.965860    0.000000
   248  O2    s     0.857284    0.365110    0.125499    0.000000
   249  O2    s     0.869201    0.380536    0.469298    0.000000
   250  O2    s     0.871273    0.389570    0.803071    0.000000
   251  O2    s     0.387527    0.616049    0.207398    0.000000
   252  O2    s     0.396004    0.637166    0.535935    0.000000
   253  O2    s     0.353535    0.631683    0.874924    0.000000
   254  O2    s     0.127292    0.875095    0.034271    0.000000
   255  O2    s     0.136779    0.872134    0.379116    0.000000
   256  O2    s     0.146209    0.885355    0.692970    0.000000
--------------------------------------------------------------------------------

  Final Cartesian lattice vectors (Angstroms) :

        8.390583    0.061658   -0.004874
        0.061865    8.350862    0.065188
       -0.015162    0.199555   24.863285


  Final cell parameters and derivatives :

--------------------------------------------------------------------------------
       a            8.390810 Angstrom     dE/de1(xx)    -0.000141 eV/strain
       b            8.351345 Angstrom     dE/de2(yy)     0.000489 eV/strain
       c           24.864090 Angstrom     dE/de3(zz)    -0.000396 eV/strain
       alpha       89.093185 Degrees      dE/de4(yz)     0.000154 eV/strain
       beta        90.064837 Degrees      dE/de5(xz)    -0.000042 eV/strain
       gamma       89.154804 Degrees      dE/de6(xy)     0.000016 eV/strain
--------------------------------------------------------------------------------

  Primitive cell volume =          1741.930658 Angs**3

  Density of cell =      4.871694 g/cm**3

  Non-primitive cell volume =          1741.930658 Angs**3


  Final internal derivatives :

--------------------------------------------------------------------------------
   No.  Atomic          a             b             c           Radius
        Label          (eV)          (eV)          (eV)        (eV/Angs)
--------------------------------------------------------------------------------
      1 Fe    c       0.000000      0.000000      0.000000      0.000000
      2 Fe    c       0.000009     -0.000030      0.000117      0.000000
      3 Fe    c      -0.001441      0.000031     -0.000391      0.000000
      4 Fe    c       0.000141      0.000126      0.000173      0.000000
      5 Fe    c      -0.000201     -0.001427      0.000847      0.000000
      6 Fe    c       0.000163     -0.000105      0.000958      0.000000
      7 Fe    c      -0.000027     -0.000313     -0.000429      0.000000
      8 Fe    c      -0.000032      0.000023      0.000239      0.000000
      9 Fe    c      -0.000419     -0.000011      0.001068      0.000000
     10 Fe    c       0.000122     -0.000031     -0.001297      0.000000
     11 Fe    c      -0.000135      0.000012      0.000050      0.000000
     12 Fe    c      -0.000119     -0.000231     -0.000138      0.000000
     13 Fe    c      -0.000038      0.000090     -0.000416      0.000000
     14 Fe    c       0.000177      0.000107     -0.001656      0.000000
     15 Fe    c      -0.000048     -0.000283      0.000501      0.000000
     16 Fe    c       0.000191     -0.000070     -0.000034      0.000000
     17 Fe    c       0.000067      0.000242     -0.001146      0.000000
     18 Fe    c       0.000292     -0.000199      0.000072      0.000000
     19 Fe    c      -0.000098     -0.000041      0.001991      0.000000
     20 Fe    c      -0.000069     -0.000108     -0.000695      0.000000
     21 Fe    c       0.000283     -0.000063     -0.000155      0.000000
     22 Fe    c      -0.000029      0.000021      0.000517      0.000000
     23 Fe    c       0.000187     -0.000046     -0.000074      0.000000
     24 Fe    c       0.000235     -0.000513      0.001042      0.000000
     25 Fe    c      -0.000012     -0.000009     -0.000279      0.000000
     26 Fe    c      -0.000125      0.000150     -0.000066      0.000000
     27 Fe    c      -0.000075     -0.000854      0.001077      0.000000
     28 Fe    c       0.000147     -0.000008     -0.000179      0.000000
     29 Fe    c       0.000138     -0.000039      0.000498      0.000000
     30 Fe    c      -0.000077      0.000597      0.001400      0.000000
     31 Fe    c       0.000132     -0.000036     -0.000329      0.000000
     32 Fe    c       0.000006      0.000011     -0.000269      0.000000
     33 Fe    c       0.000469      0.000351     -0.000220      0.000000
     34 Fe    c      -0.000111     -0.000072     -0.000559      0.000000
     35 Fe    c       0.000128      0.000017     -0.000372      0.000000
     36 Fe    c       0.000104      0.000000      0.000450      0.000000
     37 Fe    c      -0.000028      0.000101      0.000151      0.000000
     38 Fe    c      -0.000083      0.000183     -0.000250      0.000000
     39 Fe    c      -0.000076      0.000056     -0.000156      0.000000
     40 Fe    c      -0.000082     -0.000102      0.001053      0.000000
     41 Fe    c       0.000163     -0.000085     -0.000457      0.000000
     42 Fe    c      -0.000816     -0.001376      0.003045      0.000000
     43 Fe    c      -0.000121      0.000046      0.000369      0.000000
     44 Fe    c      -0.000301     -0.000062      0.000529      0.000000
     45 Fe    c       0.000117      0.000091     -0.000460      0.000000
     46 Fe    c      -0.000070      0.000121      0.000951      0.000000
     47 Fe    c      -0.000082      0.000025     -0.000462      0.000000
     48 Fe    c       0.000346     -0.000179      0.002199      0.000000
     49 Fe    c      -0.000126      0.000033      0.000309      0.000000
     50 Fe    c      -0.000180     -0.000468      0.000238      0.000000
     51 Fe    c       0.000518     -0.000163      0.001287      0.000000
     52 Fe    c      -0.000017      0.000082     -0.000261      0.000000
     53 Fe    c      -0.000316      0.000087     -0.000290      0.000000
     54 Fe    c       0.000156     -0.000238      0.000350      0.000000
     55 Fe    c       0.000098      0.000106     -0.000697      0.000000
     56 Fe    c       0.000038      0.000232      0.000324      0.000000
     57 Fe    c      -0.000294      0.001327     -0.001591      0.000000
     58 Fe    c      -0.000033      0.000103      0.001012      0.000000
     59 Fe    c      -0.000184     -0.000092      0.000192      0.000000
     60 Fe    c      -0.000077     -0.000055     -0.000195      0.000000
     61 Fe    c       0.000041      0.000066     -0.000682      0.000000
     62 Fe    c       0.000018      0.000029     -0.000378      0.000000
     63 Fe    c      -0.000228      0.000424     -0.000291      0.000000
     64 Fe    c      -0.000100      0.000070      0.000216      0.000000
     65 O2    c      -0.000030     -0.000029     -0.000169      0.000000
     66 O2    c       0.000066     -0.000208      0.000284      0.000000
     67 O2    c       0.000036     -0.000044      0.000021      0.000000
     68 O2    c      -0.000032     -0.000123     -0.000110      0.000000
     69 O2    c       0.000220      0.000150     -0.000651      0.000000
     70 O2    c       0.000116      0.000048     -0.000041      0.000000
     71 O2    c       0.000046      0.000288      0.000240      0.000000
     72 O2    c       0.000193      0.000494     -0.000515      0.000000
     73 O2    c      -0.000092     -0.000076     -0.000543      0.000000
     74 O2    c      -0.000085      0.000103     -0.000013      0.000000
     75 O2    c      -0.000387      0.000625     -0.000366      0.000000
     76 O2    c      -0.000022      0.000060     -0.000453      0.000000
     77 O2    c      -0.000050      0.000042      0.000081      0.000000
     78 O2    c       0.000332      0.000200     -0.000007      0.000000
     79 O2    c      -0.000047      0.000048     -0.000082      0.000000
     80 O2    c       0.000119     -0.000172      0.000421      0.000000
     81 O2    c      -0.000057     -0.000148     -0.000069      0.000000
     82 O2    c       0.000114      0.000158     -0.000481      0.000000
     83 O2    c       0.000132     -0.000274     -0.000113      0.000000
     84 O2    c       0.000089      0.000119      0.000517      0.000000
     85 O2    c       0.000025     -0.000155      0.000047      0.000000
     86 O2    c       0.000047      0.000003     -0.000254      0.000000
     87 O2    c      -0.000052     -0.000038      0.000562      0.000000
     88 O2    c      -0.000046     -0.000102     -0.000015      0.000000
     89 O2    c      -0.000067      0.000178      0.000467      0.000000
     90 O2    c       0.000117      0.000178     -0.000283      0.000000
     91 O2    c      -0.000101     -0.000181     -0.000324      0.000000
     92 O2    c       0.000029      0.000079      0.000028      0.000000
     93 O2    c       0.000245      0.000193     -0.000770      0.000000
     94 O2    c       0.000027     -0.000103     -0.000223      0.000000
     95 O2    c      -0.000097      0.000238      0.000362      0.000000
     96 O2    c       0.000298      0.000175      0.000987      0.000000
     97 O2    c       0.000124      0.000204      0.000308      0.000000
     98 O2    c       0.000002     -0.000021      0.000056      0.000000
     99 O2    c       0.000084      0.000066      0.000089      0.000000
    100 O2    c      -0.000036      0.000119     -0.000293      0.000000
    101 O2    c      -0.000219      0.000208     -0.000299      0.000000
    102 O2    c      -0.000032      0.000126     -0.000256      0.000000
    103 O2    c      -0.000140      0.000128     -0.000067      0.000000
    104 O2    c      -0.000009     -0.000034     -0.000096      0.000000
    105 O2    c      -0.000466      0.000600      0.000164      0.000000
    106 O2    c       0.000079      0.000001     -0.000481      0.000000
    107 O2    c       0.000059     -0.000056      0.000314      0.000000
    108 O2    c       0.000190     -0.000108      0.000377      0.000000
    109 O2    c       0.000031     -0.000136     -0.000308      0.000000
    110 O2    c       0.000383      0.000584      0.000362      0.000000
    111 O2    c      -0.000033      0.000108     -0.000278      0.000000
    112 O2    c       0.000042     -0.000163     -0.000354      0.000000
    113 O2    c      -0.000040      0.000050      0.000204      0.000000
    114 O2    c      -0.000028     -0.000054      0.001452      0.000000
    115 O2    c       0.000173      0.000039     -0.000273      0.000000
    116 O2    c      -0.000060     -0.000065      0.000113      0.000000
    117 O2    c       0.000330     -0.000184      0.000269      0.000000
    118 O2    c       0.000043      0.000111     -0.000096      0.000000
    119 O2    c       0.000063      0.000054      0.000044      0.000000
    120 O2    c      -0.000325     -0.000115      0.000848      0.000000
    121 O2    c       0.000043      0.000011      0.000129      0.000000
    122 O2    c      -0.000016     -0.000101     -0.000323      0.000000
    123 O2    c      -0.000269      0.000263      0.000394      0.000000
    124 O2    c      -0.000006     -0.000135      0.000238      0.000000
    125 O2    c      -0.000059      0.000030      0.000200      0.000000
    126 O2    c      -0.000081     -0.000026     -0.000136      0.000000
    127 O2    c      -0.000169      0.000220      0.000180      0.000000
    128 O2    c       0.000014      0.000141     -0.000321      0.000000
    129 O2    c       0.000147     -0.000504      0.000964      0.000000
    130 O2    c      -0.000003      0.000090      0.000088      0.000000
    131 O2    c      -0.000068     -0.000046     -0.000304      0.000000
    132 O2    c       0.000063     -0.000114     -0.000031      0.000000
    133 O2    c      -0.000007     -0.000108      0.000148      0.000000
    134 O2    c       0.000056     -0.000010      0.000257      0.000000
    135 O2    c       0.000065      0.000448     -0.000220      0.000000
    136 O2    c       0.000043     -0.000099      0.000110      0.000000
    137 O2    c       0.000068     -0.000019     -0.000046      0.000000
    138 O2    c      -0.000172     -0.000422      0.000453      0.000000
    139 O2    c      -0.000011      0.000069     -0.000255      0.000000
    140 O2    c       0.000023     -0.000120      0.000143      0.000000
    141 O2    c      -0.000140      0.000370     -0.001897      0.000000
    142 O2    c      -0.000312     -0.000170     -0.001572      0.000000
    143 O2    c       0.000076     -0.000049     -0.000629      0.000000
    144 O2    c       0.000022     -0.000292      0.000192      0.000000
    145 O2    c      -0.000042      0.000050      0.000064      0.000000
    146 O2    c       0.000133     -0.000001     -0.000053      0.000000
    147 O2    c      -0.000101      0.000378     -0.000408      0.000000
    148 O2    c       0.000021     -0.000006     -0.000253      0.000000
    149 O2    c      -0.000152     -0.000031      0.000114      0.000000
    150 O2    c      -0.000135     -0.000295      0.000190      0.000000
    151 O2    c      -0.000007     -0.000119     -0.000063      0.000000
    152 O2    c       0.000015     -0.000000     -0.000276      0.000000
    153 O2    c      -0.000004      0.000205      0.000260      0.000000
    154 O2    c      -0.000018     -0.000095      0.000030      0.000000
    155 O2    c      -0.000031     -0.000004     -0.000213      0.000000
    156 O2    c      -0.000054     -0.000070     -0.000216      0.000000
    157 O2    c      -0.000002     -0.000042      0.000262      0.000000
    158 O2    c      -0.000000     -0.000073     -0.000116      0.000000
    159 O2    c      -0.000583      0.000031     -0.002133      0.000000
    160 O2    c       0.000243     -0.000252     -0.000460      0.000000
    161 O2    s       0.000076      0.000063      0.000642      0.000000
    162 O2    s      -0.000226     -0.000138     -0.000556      0.000000
    163 O2    s      -0.000012      0.000117     -0.000400      0.000000
    164 O2    s       0.000072      0.000117      0.000111      0.000000
    165 O2    s      -0.000627      0.000181     -0.000487      0.000000
    166 O2    s      -0.000153     -0.000167     -0.000123      0.000000
    167 O2    s       0.000076     -0.000246      0.001222      0.000000
    168 O2    s       0.000093     -0.000475     -0.000093      0.000000
    169 O2    s       0.000153      0.000134     -0.000176      0.000000
    170 O2    s       0.000060      0.000067     -0.000726      0.000000
    171 O2    s       0.000495     -0.000393      0.000875      0.000000
    172 O2    s       0.000023      0.000054      0.000325      0.000000
    173 O2    s       0.000030     -0.000127      0.000293      0.000000
    174 O2    s      -0.000117      0.000748      0.000331      0.000000
    175 O2    s       0.000113      0.000004      0.000392      0.000000
    176 O2    s      -0.000238      0.000282     -0.000549      0.000000
    177 O2    s       0.000162      0.000361     -0.003058      0.000000
    178 O2    s      -0.000046     -0.000066      0.001105      0.000000
    179 O2    s      -0.000048      0.000307      0.000348      0.000000
    180 O2    s       0.000051     -0.000170      0.000032      0.000000
    181 O2    s      -0.000094      0.000220     -0.000288      0.000000
    182 O2    s       0.000026      0.000022      0.000558      0.000000
    183 O2    s      -0.000092     -0.000173     -0.000407      0.000000
    184 O2    s       0.000173      0.000014     -0.000109      0.000000
    185 O2    s       0.000060     -0.000485     -0.000480      0.000000
    186 O2    s       0.000236      0.000144     -0.000552      0.000000
    187 O2    s       0.000140     -0.000004      0.000887      0.000000
    188 O2    s      -0.000043     -0.000110     -0.000071      0.000000
    189 O2    s       0.000054     -0.000117      0.000739      0.000000
    190 O2    s      -0.000000      0.000230      0.000365      0.000000
    191 O2    s       0.000113     -0.000401     -0.000136      0.000000
    192 O2    s      -0.000589     -0.000465     -0.000768      0.000000
    193 O2    s      -0.000194     -0.000458     -0.000502      0.000000
    194 O2    s       0.000082     -0.000001      0.000152      0.000000
    195 O2    s      -0.000290     -0.000092      0.000274      0.000000
    196 O2    s      -0.000047     -0.000214     -0.000102      0.000000
    197 O2    s       0.000219     -0.000274      0.000526      0.000000
    198 O2    s      -0.000140     -0.000156     -0.000142      0.000000
    199 O2    s       0.000118     -0.000191     -0.000755      0.000000
    200 O2    s       0.000092      0.000039      0.000263      0.000000
    201 O2    s       0.000537     -0.000608      0.001180      0.000000
    202 O2    s      -0.000239     -0.000149      0.000170      0.000000
    203 O2    s       0.000030      0.000054     -0.000514      0.000000
    204 O2    s      -0.000610      0.000076     -0.000127      0.000000
    205 O2    s      -0.000081      0.000320      0.000677      0.000000
    206 O2    s       0.000016      0.000518     -0.002955      0.000000
    207 O2    s      -0.000069     -0.000197     -0.001524      0.000000
    208 O2    s       0.000045      0.000113      0.000989      0.000000
    209 O2    s      -0.000024      0.000062     -0.000026      0.000000
    210 O2    s      -0.000391      0.000201     -0.005005      0.000000
    211 O2    s      -0.000266     -0.000004      0.001291      0.000000
    212 O2    s       0.000089      0.000019      0.000268      0.000000
    213 O2    s      -0.000142      0.000390     -0.001202      0.000000
    214 O2    s       0.000075     -0.000375      0.000004      0.000000
    215 O2    s       0.000139     -0.000075      0.000018      0.000000
    216 O2    s       0.000472      0.000427     -0.000652      0.000000
    217 O2    s       0.000005      0.000044     -0.001096      0.000000
    218 O2    s      -0.000098     -0.000057      0.000702      0.000000
    219 O2    s       0.000277     -0.000309     -0.000929      0.000000
    220 O2    s       0.000120      0.000345      0.000003      0.000000
    221 O2    s       0.000010      0.000075     -0.000686      0.000000
    222 O2    s      -0.000134      0.000246     -0.000281      0.000000
    223 O2    s       0.000098     -0.000393     -0.000740      0.000000
    224 O2    s       0.000071     -0.000122      0.000887      0.000000
    225 O2    s      -0.000180      0.000492     -0.001697      0.000000
    226 O2    s       0.000070     -0.000090      0.000155      0.000000
    227 O2    s       0.000085      0.000028      0.000879      0.000000
    228 O2    s       0.000130      0.000492     -0.000047      0.000000
    229 O2    s      -0.000039      0.000081     -0.000440      0.000000
    230 O2    s      -0.000018      0.000019     -0.000244      0.000000
    231 O2    s      -0.000224     -0.000407      0.001411      0.000000
    232 O2    s      -0.000152      0.000158     -0.000419      0.000000
    233 O2    s      -0.000249     -0.000032      0.000607      0.000000
    234 O2    s       0.001765      0.000488     -0.002359      0.000000
    235 O2    s       0.000069      0.000020     -0.000143      0.000000
    236 O2    s       0.000012      0.000261     -0.000190      0.000000
    237 O2    s       0.000185     -0.000212      0.000992      0.000000
    238 O2    s      -0.000067     -0.000100      0.003499      0.000000
    239 O2    s      -0.000252      0.000011      0.001169      0.000000
    240 O2    s       0.000174     -0.000208     -0.000634      0.000000
    241 O2    s       0.000117      0.000137      0.000015      0.000000
    242 O2    s      -0.000014      0.000069     -0.000191      0.000000
    243 O2    s      -0.000151     -0.000376      0.001227      0.000000
    244 O2    s       0.000125      0.000118      0.001218      0.000000
    245 O2    s       0.000396     -0.000087     -0.000158      0.000000
    246 O2    s       0.000339      0.000326     -0.000423      0.000000
    247 O2    s      -0.000265      0.000132      0.000293      0.000000
    248 O2    s      -0.000003      0.000069      0.000037      0.000000
    249 O2    s       0.000004     -0.000164     -0.000753      0.000000
    250 O2    s       0.000102      0.000007     -0.000716      0.000000
    251 O2    s       0.000077     -0.000014      0.000530      0.000000
    252 O2    s      -0.000290     -0.000004     -0.000139      0.000000
    253 O2    s      -0.000117     -0.000101     -0.000199      0.000000
    254 O2    s      -0.000059     -0.000004      0.000071      0.000000
    255 O2    s       0.000994      0.000008      0.003487      0.000000
    256 O2    s      -0.000294      0.000288      0.000989      0.000000
--------------------------------------------------------------------------------
  Maximum abs         0.001765      0.001427      0.005005      0.000000
--------------------------------------------------------------------------------


  Time to end of optimisation =       6.6390 seconds


  Peak dynamic memory used =      14.83 MB 


  Timing analysis for GULP :

--------------------------------------------------------------------------------
  Task / Subroutine                                          Time (Seconds)
--------------------------------------------------------------------------------
  Calculation of reciprocal space energy and derivatives          0.5208
  Calculation of real space energy and derivatives                5.2254
  Calculation and manipulation of Hessian matrix                  0.4506
  Calculation of matrix inversion                                 0.4175
  Global summation overhead                                       0.0002
--------------------------------------------------------------------------------
  Total CPU time                                                  6.6390
--------------------------------------------------------------------------------


  Job Finished at 07:47.27  6th April      2026                               

