Fe8O32Sb8
   1.00000000
   9.274300317   0.000523956  -0.000095549
   0.000523956   9.274351983   0.000009787
  -0.000063353   0.000006490   6.149657904
  Fe  Sb  O
  8  8  32
Direct configuration=     1
   0.000000000   0.000000000   0.000000000
   0.000000000   0.000000000   0.500000000
   0.000000000   0.500000000   0.000000000
   0.000000000   0.500000000   0.500000000
   0.500000000   0.000000000   0.000000000
   0.500000000   0.500000000   0.000000000
   0.248075420   0.250199438   0.248509795
   0.751924580   0.749800562   0.751490205
   0.500000000   0.000000000   0.500000000
   0.500000000   0.500000000   0.500000000
   0.246850039   0.250324209   0.752269689
   0.246634453   0.750721491   0.247727793
   0.246635064   0.750700224   0.752277475
   0.753364936   0.249299776   0.247722525
   0.753365547   0.249278509   0.752272207
   0.753149961   0.749675791   0.247730311
   0.152985125   0.152496028   0.999545003
   0.153433729   0.152965280   0.500569530
   0.153615668   0.652777190   0.999999503
   0.154040136   0.653291185   0.499980420
   0.652129264   0.152955386   0.999996400
   0.652110505   0.152784831   0.499997011
   0.651856525   0.652341448   0.000655786
   0.651061133   0.651541256   0.500082485
   0.348143475   0.347658552   0.999344214
   0.348938867   0.348458744   0.499917515
   0.347870736   0.847044614   0.000003600
   0.347889495   0.847215169   0.500002989
   0.846384332   0.347222810   0.000000497
   0.845959864   0.346708815   0.500019580
   0.847014875   0.847503972   0.000454997
   0.846566271   0.847034720   0.499430470
   0.097071878   0.403048117   0.250034353
   0.097474619   0.402758592   0.749808322
   0.098601680   0.901561731   0.250170233
   0.098671461   0.901637265   0.749818287
   0.597556011   0.402161406   0.250847996
   0.597629972   0.402226489   0.749141340
   0.596682439   0.903097292   0.250876399
   0.596218116   0.903685563   0.748250959
   0.403781884   0.096314437   0.251749041
   0.403317561   0.096902708   0.749123601
   0.402370028   0.597773511   0.250858660
   0.402443989   0.597838594   0.749152004
   0.901328539   0.098362735   0.250181713
   0.901398320   0.098438269   0.749829767
   0.902525381   0.597241408   0.250191678
   0.902928122   0.596951883   0.749965647
Fe8O32Sb8
   1.00000000
   9.276758026   0.001478346  -0.000242322
   0.001478345   9.276878287   0.000017192
  -0.000160671   0.000011401   6.151961889
  Fe  Sb  O
  8  8  32
Direct configuration=     2
   0.000000000   0.000000000   0.000000000
   0.000000000   0.000000000   0.500000000
   0.000000000   0.500000000   0.000000000
   0.000000000   0.500000000   0.500000000
   0.500000000   0.000000000   0.000000000
   0.500000000   0.500000000   0.000000000
   0.245759761   0.250741961   0.246976475
   0.754240239   0.749258039   0.753023525
   0.500000000   0.000000000   0.500000000
   0.500000000   0.500000000   0.500000000
   0.244105853   0.250895964   0.753862550
   0.243943145   0.751585656   0.246949466
   0.243864261   0.751586488   0.753051898
   0.756135739   0.248413512   0.246948102
   0.756056855   0.248414344   0.753050534
   0.755894147   0.749104036   0.246137450
   0.152948995   0.151673387   0.999319497
   0.154259374   0.153133243   0.501485573
   0.154124016   0.651976918   0.000001478
   0.155490154   0.653698186   0.499950417
   0.651450102   0.153521169   0.999999082
   0.651976346   0.153573318   0.499976044
   0.650781635   0.652003782   0.001714991
   0.649478805   0.650598518   0.499598870
   0.349218365   0.347996218   0.998285009
   0.350521195   0.349401482   0.500401130
   0.348549898   0.846478831   0.000000918
   0.348023654   0.846426682   0.500023956
   0.845875984   0.348023082   0.999998522
   0.844509846   0.346301814   0.500049583
   0.847051005   0.848326613   0.000680503
   0.845740626   0.846866757   0.498514427
   0.096659421   0.403572215   0.249998185
   0.097449353   0.403059554   0.749643366
   0.099735486   0.900610100   0.250263497
   0.099885411   0.900760017   0.749711843
   0.598521115   0.400861604   0.251616558
   0.598712566   0.401030460   0.748356937
   0.596704591   0.902841593   0.251625931
   0.595183017   0.904656672   0.746275273
   0.404816983   0.095343328   0.253724727
   0.403295409   0.097158407   0.748374069
   0.401287434   0.598969540   0.251643063
   0.401478885   0.599138396   0.748383442
   0.900114589   0.099239983   0.250288157
   0.900264514   0.099389900   0.749736503
   0.902550647   0.596940446   0.250356634
   0.903340579   0.596427785   0.750001815
Fe8O32Sb8
   1.00000000
   9.278793240   0.002155558  -0.000336341
   0.002155560   9.278989203   0.000009664
  -0.000223013   0.000006413   6.153790845
  Fe  Sb  O
  8  8  32
Direct configuration=     3
   0.000000000   0.000000000   0.000000000
   0.000000000   0.000000000   0.500000000
   0.000000000   0.500000000   0.000000000
   0.000000000   0.500000000   0.500000000
   0.500000000   0.000000000   0.000000000
   0.500000000   0.500000000   0.000000000
   0.244656016   0.251250718   0.246402547
   0.755343984   0.748749282   0.753597453
   0.500000000   0.000000000   0.500000000
   0.500000000   0.500000000   0.500000000
   0.243520991   0.251286934   0.754112315
   0.243675642   0.751661863   0.246970433
   0.243514588   0.751691142   0.753021143
   0.756485412   0.248308858   0.246978857
   0.756324358   0.248338137   0.753029567
   0.756479009   0.748713066   0.245887685
   0.152718753   0.150930070   0.999382992
   0.154572230   0.153088192   0.502028727
   0.154166783   0.651205409   0.000006591
   0.155956496   0.653597074   0.499930603
   0.651252810   0.154044832   0.000003949
   0.652080071   0.154140704   0.499958195
   0.650333505   0.652000400   0.002422397
   0.649028683   0.650464240   0.499116809
   0.349666495   0.347999600   0.997577603
   0.350971317   0.349535760   0.500883191
   0.348747190   0.845955168   0.999996051
   0.347919929   0.845859296   0.500041805
   0.845833217   0.348794591   0.999993409
   0.844043504   0.346402926   0.500069397
   0.847281247   0.849069930   0.000617008
   0.845427770   0.846911808   0.497971273
   0.096331030   0.403909102   0.249938324
   0.097211194   0.403409881   0.749583311
   0.099672792   0.900765033   0.250298884
   0.099843779   0.900948886   0.749671057
   0.599171232   0.400040339   0.251904214
   0.599458709   0.400300807   0.748060304
   0.597100394   0.902371040   0.251822709
   0.594866568   0.904995678   0.745485071
   0.405133432   0.095004322   0.254514929
   0.402899606   0.097628960   0.748177291
   0.400541291   0.599699193   0.251939696
   0.400828768   0.599959661   0.748095786
   0.900156221   0.099051114   0.250328943
   0.900327208   0.099234967   0.749701116
   0.902788806   0.596590119   0.250416689
   0.903668970   0.596090898   0.750061676
Fe8O32Sb8
   1.00000000
   9.284482617   0.003972769  -0.000554867
   0.003972784   9.284890140  -0.000018305
  -0.000367922  -0.000012116   6.158841527
  Fe  Sb  O
  8  8  32
Direct configuration=     4
   0.000000000   0.000000000   0.000000000
   0.000000000   0.000000000   0.500000000
   0.000000000   0.500000000   0.000000000
   0.000000000   0.500000000   0.500000000
   0.500000000   0.000000000   0.000000000
   0.500000000   0.500000000   0.000000000
   0.242301273   0.252547790   0.245446860
   0.757698727   0.747452210   0.754553140
   0.500000000   0.000000000   0.500000000
   0.500000000   0.500000000   0.500000000
   0.242954387   0.252072101   0.754288719
   0.243676691   0.751666036   0.247125763
   0.243331302   0.751746212   0.752839357
   0.756668698   0.248253788   0.247160643
   0.756323309   0.248333964   0.752874237
   0.757045613   0.747927899   0.245711281
   0.152243117   0.149258270   0.999494888
   0.155135616   0.152928868   0.503203246
   0.154271571   0.649421474   0.000020397
   0.156567486   0.653002309   0.499881654
   0.650949433   0.155377184   0.000023759
   0.652277751   0.155287474   0.499911568
   0.649497322   0.652169791   0.004041830
   0.648402170   0.650454759   0.497972280
   0.350502678   0.347830209   0.995958170
   0.351597830   0.349545241   0.502027720
   0.349050567   0.844622816   0.999976241
   0.347722249   0.844712526   0.500088432
   0.845728429   0.350578526   0.999979603
   0.843432514   0.346997691   0.500118346
   0.847756883   0.850741730   0.000505112
   0.844864384   0.847071132   0.496796754
   0.095536310   0.404636896   0.249757622
   0.096558260   0.404245744   0.749496635
   0.099154546   0.901460637   0.250372056
   0.099321194   0.901721876   0.749588958
   0.600273925   0.398522089   0.252496282
   0.600857222   0.399084439   0.747448411
   0.598209403   0.901163473   0.252077119
   0.594470283   0.905526356   0.744203702
   0.405529717   0.094473644   0.255796298
   0.401790597   0.098836527   0.747922881
   0.399142778   0.600915561   0.252551589
   0.399726075   0.601477911   0.747503718
   0.900678806   0.098278124   0.250411042
   0.900845454   0.098539363   0.749627944
   0.903441740   0.595754256   0.250503365
   0.904463690   0.595363104   0.750242378
Fe8O32Sb8
   1.00000000
   9.287781211   0.005000723  -0.000644650
   0.005000738   9.288294882  -0.000034130
  -0.000427471  -0.000022589   6.161740768
  Fe  Sb  O
  8  8  32
Direct configuration=     5
   0.000000000   0.000000000   0.000000000
   0.000000000   0.000000000   0.500000000
   0.000000000   0.500000000   0.000000000
   0.000000000   0.500000000   0.500000000
   0.500000000   0.000000000   0.000000000
   0.500000000   0.500000000   0.000000000
   0.241421289   0.253112965   0.245305387
   0.758578711   0.746887035   0.754694613
   0.500000000   0.000000000   0.500000000
   0.500000000   0.500000000   0.500000000
   0.243026969   0.252278410   0.754217801
   0.243669734   0.751685446   0.247215245
   0.243270954   0.751763888   0.752738618
   0.756729046   0.248236112   0.247261382
   0.756330266   0.248314554   0.752784755
   0.756973031   0.747721590   0.245782199
   0.152229215   0.148779622   0.999425355
   0.155269394   0.152886174   0.503567970
   0.154451702   0.648831491   0.000024542
   0.156553158   0.652598185   0.499861108
   0.650864765   0.155944555   0.000041061
   0.652262125   0.155556733   0.499889593
   0.649287327   0.652329894   0.004599129
   0.648370750   0.650569497   0.497581569
   0.350712673   0.347670106   0.995400871
   0.351629250   0.349430503   0.502418431
   0.349135235   0.844055445   0.999958939
   0.347737875   0.844443267   0.500110407
   0.845548298   0.351168509   0.999975458
   0.843446842   0.347401815   0.500138892
   0.847770785   0.851220378   0.000574645
   0.844730606   0.847113826   0.496432030
   0.095215952   0.404850087   0.249640921
   0.096329083   0.404478066   0.749518214
   0.098943856   0.901707061   0.250394469
   0.099067143   0.901984238   0.749565656
   0.600278122   0.398307996   0.252707100
   0.601060743   0.399091111   0.747231473
   0.598623492   0.900765794   0.252097451
   0.594505387   0.905618499   0.744088570
   0.405494613   0.094381501   0.255911430
   0.401376508   0.099234206   0.747902549
   0.398939257   0.600908889   0.252768527
   0.399721878   0.601692004   0.747292900
   0.900932857   0.098015762   0.250434344
   0.901056144   0.098292939   0.749605531
   0.903670917   0.595521934   0.250481786
   0.904784048   0.595149913   0.750359079
Fe8O32Sb8
   1.00000000
   9.299473987   0.008644179  -0.000916764
   0.008644182   9.300335346  -0.000082325
  -0.000607977  -0.000054461   6.171992683
  Fe  Sb  O
  8  8  32
Direct configuration=     6
   0.000000000   0.000000000   0.000000000
   0.000000000   0.000000000   0.500000000
   0.000000000   0.500000000   0.000000000
   0.000000000   0.500000000   0.500000000
   0.500000000   0.000000000   0.000000000
   0.500000000   0.500000000   0.000000000
   0.239001154   0.254750086   0.245238233
   0.760998846   0.745249914   0.754761767
   0.500000000   0.000000000   0.500000000
   0.500000000   0.500000000   0.500000000
   0.243474016   0.252731987   0.753908919
   0.243509177   0.751660594   0.247495670
   0.242991257   0.751697145   0.752424257
   0.757008743   0.248302855   0.247575743
   0.756490823   0.248339406   0.752504330
   0.756525984   0.747268013   0.246091081
   0.152549917   0.147827012   0.998989235
   0.155475076   0.152828328   0.504379249
   0.155303273   0.647426179   0.000033593
   0.156271181   0.651363778   0.499801431
   0.650626201   0.157593266   0.000106032
   0.652113791   0.156061746   0.499823843
   0.648893546   0.652905989   0.005913383
   0.648583704   0.650998040   0.496692753
   0.351106454   0.347094011   0.994086617
   0.351416296   0.349001960   0.503307247
   0.349373799   0.842406734   0.999893968
   0.347886209   0.843938254   0.500176157
   0.844696727   0.352573821   0.999966407
   0.843728819   0.348636222   0.500198569
   0.847450083   0.852172988   0.001010765
   0.844524924   0.847171672   0.495620751
   0.094293794   0.405293306   0.249210863
   0.095824813   0.404838442   0.749702164
   0.098490221   0.902192883   0.250451848
   0.098420250   0.902452795   0.749509678
   0.599645886   0.398247107   0.253252632
   0.601181389   0.399857945   0.746678141
   0.599528155   0.900017468   0.252122572
   0.594829477   0.905811868   0.744302331
   0.405170523   0.094188132   0.255697669
   0.400471845   0.099982532   0.747877428
   0.398818611   0.600142055   0.253321859
   0.400354114   0.601752893   0.746747368
   0.901579750   0.097547205   0.250490322
   0.901509779   0.097807117   0.749548152
   0.904175187   0.595161558   0.250297836
   0.905706206   0.594706694   0.750789137
Fe8O32Sb8
   1.00000000
   9.311987732   0.012569787  -0.001175219
   0.012569748   9.313197757  -0.000121806
  -0.000779442  -0.000080537   6.182950269
  Fe  Sb  O
  8  8  32
Direct configuration=     7
   0.000000000   0.000000000   0.000000000
   0.000000000   0.000000000   0.500000000
   0.000000000   0.500000000   0.000000000
   0.000000000   0.500000000   0.500000000
   0.500000000   0.000000000   0.000000000
   0.500000000   0.500000000   0.000000000
   0.237154789   0.256026557   0.245437895
   0.762845211   0.743973443   0.754562105
   0.500000000   0.000000000   0.500000000
   0.500000000   0.500000000   0.500000000
   0.243931397   0.252959492   0.753620518
   0.243323512   0.751447131   0.247704419
   0.242737225   0.751414993   0.752183744
   0.757262775   0.248585007   0.247816256
   0.756676488   0.248552869   0.752295581
   0.756068603   0.747040508   0.246379482
   0.153163698   0.147481113   0.998400838
   0.155439446   0.152866867   0.504788412
   0.156358849   0.646527023   0.000038540
   0.155974413   0.650428646   0.499751685
   0.650412671   0.158982836   0.000171398
   0.651992292   0.156330495   0.499770052
   0.648764816   0.653449566   0.006606791
   0.648997489   0.651352237   0.496284539
   0.351235184   0.346550434   0.993393209
   0.351002511   0.348647763   0.503715461
   0.349587329   0.841017164   0.999828602
   0.348007708   0.843669505   0.500229948
   0.843641151   0.353472977   0.999961460
   0.844025587   0.349571354   0.500248315
   0.846836302   0.852518887   0.001599162
   0.844560554   0.847133133   0.495211588
   0.093490746   0.405486600   0.248751814
   0.095588502   0.404766749   0.749989720
   0.098335513   0.902287480   0.250489834
   0.098032978   0.902433374   0.749475034
   0.598661739   0.398567398   0.253623816
   0.601037713   0.401069312   0.746318088
   0.599855719   0.899948104   0.252185734
   0.595226836   0.906025864   0.744852952
   0.404773164   0.093974136   0.255147048
   0.400144281   0.100051896   0.747814266
   0.398962287   0.598930688   0.253681912
   0.401338261   0.601432602   0.746376184
   0.901967022   0.097566626   0.250524966
   0.901664487   0.097712520   0.749510166
   0.904411498   0.595233251   0.250010280
   0.906509254   0.594513400   0.751248186
Fe8O32Sb8
   1.00000000
   9.331359700   0.018705445  -0.001556564
   0.018705307   9.333094791  -0.000166141
  -0.001032435  -0.000109774   6.199900787
  Fe  Sb  O
  8  8  32
Direct configuration=     8
   0.000000000   0.000000000   0.000000000
   0.000000000   0.000000000   0.500000000
   0.000000000   0.500000000   0.000000000
   0.000000000   0.500000000   0.500000000
   0.500000000   0.000000000   0.000000000
   0.500000000   0.500000000   0.000000000
   0.235283076   0.257278669   0.245875877
   0.764716924   0.742721331   0.754124123
   0.500000000   0.000000000   0.500000000
   0.500000000   0.500000000   0.500000000
   0.244490150   0.252964662   0.753305946
   0.243182496   0.750890459   0.247852551
   0.242555389   0.750735603   0.751989425
   0.757444611   0.249264397   0.248010575
   0.756817504   0.249109541   0.752147449
   0.755509850   0.747035338   0.246694054
   0.154272477   0.147613408   0.997450334
   0.155114790   0.153059482   0.504938306
   0.158012036   0.645696034   0.000041815
   0.155737306   0.649584753   0.499691838
   0.650113114   0.160664318   0.000256960
   0.651962672   0.156607216   0.499710860
   0.648840873   0.654107922   0.006836121
   0.649703244   0.651644857   0.496297444
   0.351159127   0.345892078   0.993163879
   0.350296756   0.348355143   0.503702556
   0.349886886   0.839335682   0.999743040
   0.348037328   0.843392784   0.500289140
   0.841987964   0.354303966   0.999958185
   0.844262694   0.350415247   0.500308162
   0.845727523   0.852386592   0.002549666
   0.844885210   0.846940518   0.495061694
   0.092415200   0.405506035   0.248083134
   0.095529478   0.404170970   0.750500188
   0.098485129   0.901927182   0.250499948
   0.097804534   0.901766055   0.749467935
   0.597141440   0.399207370   0.253931887
   0.600813368   0.403028901   0.746054598
   0.599651802   0.900649314   0.252381656
   0.595768444   0.906482540   0.745751888
   0.404231556   0.093517460   0.254248112
   0.400348198   0.099350686   0.747618344
   0.399186632   0.596971099   0.253945402
   0.402858560   0.600792630   0.746068113
   0.902195466   0.098233945   0.250532065
   0.901514871   0.098072818   0.749500052
   0.904470522   0.595829030   0.249499812
   0.907584800   0.594493965   0.751916866
Fe8O32Sb8
   1.00000000
   9.350433000   0.024832615  -0.001938258
   0.024832371   9.352690476  -0.000192718
  -0.001285609  -0.000127273   6.216570797
  Fe  Sb  O
  8  8  32
Direct configuration=     9
   0.000000000   0.000000000   0.000000000
   0.000000000   0.000000000   0.500000000
   0.000000000   0.500000000   0.000000000
   0.000000000   0.500000000   0.500000000
   0.500000000   0.000000000   0.000000000
   0.500000000   0.500000000   0.000000000
   0.234537000   0.257644303   0.246238327
   0.765463000   0.742355697   0.753761673
   0.500000000   0.000000000   0.500000000
   0.500000000   0.500000000   0.500000000
   0.244857023   0.252594507   0.753172831
   0.243310504   0.750185766   0.247785285
   0.242707680   0.749905880   0.752011753
   0.757292320   0.250094120   0.247988247
   0.756689496   0.249814234   0.752214715
   0.755142977   0.747405493   0.246827169
   0.155319669   0.148214132   0.996604388
   0.154591048   0.153392087   0.504705206
   0.159467034   0.645247502   0.000041882
   0.155887320   0.649428740   0.499648773
   0.649814063   0.161801071   0.000314161
   0.652130227   0.156867699   0.499680368
   0.649117034   0.654494090   0.006325934
   0.650320064   0.651584810   0.496854466
   0.350882966   0.345505910   0.993674066
   0.349679936   0.348415190   0.503145534
   0.350185937   0.838198929   0.999685839
   0.347869773   0.843132301   0.500319632
   0.840532966   0.354752498   0.999958118
   0.844112680   0.350571260   0.500351227
   0.844680331   0.851785868   0.003395612
   0.845408952   0.846607913   0.495294794
   0.091478373   0.405299071   0.247525244
   0.095695105   0.403196039   0.750999573
   0.098960014   0.901124941   0.250417454
   0.097901923   0.900526357   0.749546077
   0.595977369   0.399728313   0.253963448
   0.600832093   0.404698584   0.746092822
   0.598924702   0.901945892   0.252687665
   0.596135724   0.907124028   0.746367563
   0.403864276   0.092875972   0.253632437
   0.401075298   0.098054108   0.747312335
   0.399167907   0.595301416   0.253907178
   0.404022631   0.600271687   0.746036552
   0.902098077   0.099473643   0.250453923
   0.901039986   0.098875059   0.749582546
   0.904304895   0.596803961   0.249000427
   0.908521627   0.594700929   0.752474756
Fe8O32Sb8
   1.00000000
   9.366311845   0.030049963  -0.002292688
   0.030049685   9.369033321  -0.000199228
  -0.001520573  -0.000131574   6.230415220
  Fe  Sb  O
  8  8  32
Direct configuration=     10
   0.000000000   0.000000000   0.000000000
   0.000000000   0.000000000   0.500000000
   0.000000000   0.500000000   0.000000000
   0.000000000   0.500000000   0.500000000
   0.500000000   0.000000000   0.000000000
   0.500000000   0.500000000   0.000000000
   0.235023497   0.257049559   0.246287311
   0.764976503   0.742950441   0.753712689
   0.500000000   0.000000000   0.500000000
   0.500000000   0.500000000   0.500000000
   0.244998278   0.251983337   0.753209009
   0.243742182   0.749553483   0.247534415
   0.243218131   0.749177778   0.752225594
   0.756781869   0.250822222   0.247774406
   0.756257818   0.250446517   0.752465585
   0.755001722   0.748016663   0.246790991
   0.155917286   0.148891243   0.996145014
   0.154060012   0.153800013   0.504289562
   0.160325195   0.645040298   0.000039219
   0.156478366   0.649931362   0.499625010
   0.649514764   0.162192098   0.000325035
   0.652407534   0.157133771   0.499685125
   0.649461229   0.654516364   0.005417098
   0.650623612   0.651156165   0.497625198
   0.350538771   0.345483636   0.994582902
   0.349376388   0.348843835   0.502374802
   0.350485236   0.837807902   0.999674965
   0.347592466   0.842866229   0.500314875
   0.839674805   0.354959702   0.999960781
   0.843521634   0.350068638   0.500374990
   0.844082714   0.851108757   0.003854986
   0.845939988   0.846199987   0.495710438
   0.090807483   0.404937235   0.247226799
   0.095941102   0.402145708   0.751319900
   0.099539522   0.900167125   0.250199512
   0.098177599   0.899088296   0.749748220
   0.595592829   0.399879513   0.253760178
   0.601215875   0.405546292   0.746368545
   0.598106048   0.903290742   0.253007511
   0.596237877   0.907850516   0.746341979
   0.403762123   0.092149484   0.253658021
   0.401893952   0.096709258   0.746992489
   0.398784125   0.594453708   0.253631455
   0.404407171   0.600120487   0.746239822
   0.901822401   0.100911704   0.250251780
   0.900460478   0.099832875   0.749800488
   0.904058898   0.597854292   0.248680100
   0.909192517   0.595062765   0.752773201
Fe8O32Sb8
   1.00000000
   9.375856712   0.033325951  -0.002568443
   0.033325770   9.378903725  -0.000190656
  -0.001703210  -0.000126017   6.238687031
  Fe  Sb  O
  8  8  32
Direct configuration=     11
   0.000000000   0.000000000   0.000000000
   0.000000000   0.000000000   0.500000000
   0.000000000   0.500000000   0.000000000
   0.000000000   0.500000000   0.500000000
   0.500000000   0.000000000   0.000000000
   0.500000000   0.500000000   0.000000000
   0.236266306   0.255927574   0.245971375
   0.763733694   0.744072426   0.754028625
   0.500000000   0.000000000   0.500000000
   0.500000000   0.500000000   0.500000000
   0.244962120   0.251473864   0.753298469
   0.244280110   0.749261124   0.247254891
   0.243846298   0.748842682   0.752486888
   0.756153702   0.251157318   0.247513112
   0.755719890   0.250738876   0.752745109
   0.755037880   0.748526136   0.246701531
   0.155850165   0.149184624   0.996214688
   0.153775312   0.154136664   0.503996333
   0.160412960   0.644947131   0.000034828
   0.157247525   0.650681362   0.499617222
   0.649261687   0.161903413   0.000293067
   0.652566240   0.157316619   0.499715667
   0.649701382   0.654264554   0.004722394
   0.650517076   0.650575753   0.498101941
   0.350298618   0.345735446   0.995277606
   0.349482924   0.349424247   0.501898059
   0.350738313   0.838096587   0.999706933
   0.347433760   0.842683381   0.500284333
   0.839587040   0.355052869   0.999965172
   0.842752475   0.349318638   0.500382778
   0.844149835   0.850815376   0.003785312
   0.846224688   0.845863336   0.496003667
   0.090533763   0.404552784   0.247258199
   0.096072392   0.401453279   0.751333276
   0.099883432   0.899524745   0.249890049
   0.098363472   0.898088709   0.750033570
   0.595983602   0.399685665   0.253504890
   0.601742146   0.405426414   0.746663569
   0.597749063   0.903986378   0.253159017
   0.596136787   0.908398676   0.745690896
   0.403863213   0.091601324   0.254309104
   0.402250937   0.096013622   0.746840983
   0.398257854   0.594573586   0.253336431
   0.404016398   0.600314335   0.746495110
   0.901636528   0.101911291   0.249966430
   0.900116568   0.100475255   0.750109951
   0.903927608   0.598546721   0.248666724
   0.909466237   0.595447216   0.752741801
Fe8O32Sb8
   1.00000000
   9.381146605   0.035296436  -0.002796267
   0.035296455   9.384429336  -0.000177147
  -0.001853949  -0.000117287   6.243203855
  Fe  Sb  O
  8  8  32
Direct configuration=     12
   0.000000000   0.000000000   0.000000000
   0.000000000   0.000000000   0.500000000
   0.000000000   0.500000000   0.000000000
   0.000000000   0.500000000   0.500000000
   0.500000000   0.000000000   0.000000000
   0.500000000   0.500000000   1.000000000
   0.237661504   0.254762690   0.245480506
   0.762338496   0.745237310   0.754519494
   0.500000000   0.000000000   0.500000000
   0.500000000   0.500000000   0.500000000
   0.244860462   0.251209570   0.753364762
   0.244712135   0.749318602   0.247049658
   0.244350707   0.748892362   0.752691043
   0.755649293   0.251107638   0.247308957
   0.755287865   0.250681398   0.752950342
   0.755139538   0.748790430   0.246635238
   0.155382866   0.149080487   0.996579154
   0.153762026   0.154364511   0.503923361
   0.160084620   0.644918672   0.000031747
   0.157931336   0.651299717   0.499613471
   0.649067901   0.161303438   0.000244706
   0.652478761   0.157347150   0.499751432
   0.649827089   0.653951537   0.004487419
   0.650175136   0.650058721   0.498145073
   0.350172911   0.346048463   0.995512581
   0.349824864   0.349941279   0.501854927
   0.350932099   0.838696562   0.999755294
   0.347521239   0.842652850   0.500248568
   0.839915380   0.355081328   0.999968253
   0.842068664   0.348700283   0.500386529
   0.844617134   0.850919513   0.003420846
   0.846237974   0.845635489   0.496076639
   0.090545132   0.404190952   0.247498988
   0.096031320   0.401157149   0.751114671
   0.099914629   0.899300407   0.249564640
   0.098340762   0.897657068   0.750331300
   0.596647442   0.399450319   0.253319832
   0.602091323   0.404848334   0.746850729
   0.597933227   0.903987918   0.253105725
   0.596007253   0.908688899   0.744805468
   0.403992747   0.091311101   0.255194532
   0.402066773   0.096012082   0.746894275
   0.397908677   0.595151666   0.253149271
   0.403352558   0.600549681   0.746680168
   0.901659238   0.102342932   0.249668700
   0.900085371   0.100699593   0.750435360
   0.903968680   0.598842851   0.248885329
   0.909454868   0.595809048   0.752501012
Fe8O32Sb8
   1.00000000
   9.384680911   0.036751629  -0.003006169
   0.036751905   9.388168258  -0.000164893
  -0.001992747  -0.000109425   6.246151600
  Fe  Sb  O
  8  8  32
Direct configuration=     13
   0.000000000   0.000000000   0.000000000
   0.000000000   0.000000000   0.500000000
   0.000000000   0.500000000   0.000000000
   0.000000000   0.500000000   0.500000000
   0.500000000   0.000000000   0.000000000
   0.500000000   0.500000000   1.000000000
   0.238866730   0.253817134   0.245025751
   0.761133270   0.746182866   0.754974249
   0.500000000   0.000000000   0.500000000
   0.500000000   0.500000000   0.500000000
   0.244744546   0.251189758   0.753403138
   0.244927311   0.749618163   0.246951961
   0.244608483   0.749201487   0.752798824
   0.755391517   0.250798513   0.247201176
   0.755072689   0.250381837   0.753048039
   0.755255454   0.748810242   0.246596862
   0.154850750   0.148790026   0.996962383
   0.153943529   0.154494391   0.504018134
   0.159706465   0.645011985   0.000035084
   0.158403291   0.651648976   0.499605130
   0.648952984   0.160666576   0.000203729
   0.652158430   0.157209377   0.499775389
   0.649906397   0.653728351   0.004662044
   0.649805425   0.649733507   0.497848404
   0.350093603   0.346271649   0.995337956
   0.350194575   0.350266493   0.502151596
   0.351047016   0.839333424   0.999796271
   0.347841570   0.842790623   0.500224611
   0.840293535   0.354988015   0.999964916
   0.841596709   0.348351024   0.500394870
   0.845149250   0.851209974   0.003037617
   0.846056471   0.845505609   0.495981866
   0.090718989   0.403847768   0.247818412
   0.095851871   0.401133167   0.750786396
   0.099717660   0.899393080   0.249301300
   0.098140012   0.897662181   0.750567599
   0.597179556   0.399397540   0.253213372
   0.602091552   0.404266515   0.746931646
   0.598444382   0.903579059   0.252920505
   0.595950708   0.908751347   0.744054538
   0.404049292   0.091248653   0.255945462
   0.401555618   0.096420941   0.747079495
   0.397908448   0.595733485   0.253068354
   0.402820444   0.600602460   0.746786628
   0.901859988   0.102337819   0.249432401
   0.900282340   0.100606920   0.750698700
   0.904148129   0.598866833   0.249213604
   0.909281011   0.596152232   0.752181588
Fe8O32Sb8
   1.00000000
   9.387979730   0.038203984  -0.003216459
   0.038204553   9.391680717  -0.000155009
  -0.002131775  -0.000103134   6.248856727
  Fe  Sb  O
  8  8  32
Direct configuration=     14
   0.000000000   0.000000000   0.000000000
   0.000000000   0.000000000   0.500000000
   0.000000000   0.500000000   0.000000000
   0.000000000   0.500000000   0.500000000
   0.500000000   0.000000000   0.000000000
   0.500000000   0.500000000   1.000000000
   0.239809854   0.253137353   0.244727210