********************************************************************************
*                       GENERAL UTILITY LATTICE PROGRAM                        *
*                                 Julian Gale                                  *
*                       Curtin Institute for Computation                       *
*                    School of Molecular and Life Sciences                     *
*                    Curtin University, Western Australia                      *
********************************************************************************
* Version = 6.4.0 * Last modified =  22nd December 2025                        *
********************************************************************************
*  optimise     - perform optimisation run                                     *
*  conp         - constant pressure calculation                                *
********************************************************************************
*  Al/Fe substitutions in LaFeO3  perovskite - configuration 3                 *
********************************************************************************


  Job Started  at 17:31.35  5th April      2026                               

  Number of CPUs =     1


  Total number of configurations input =      1

********************************************************************************
*  Input for Configuration =   1                                               *
********************************************************************************

  Formula = La8Al2Fe6O24

  Number of irreducible atoms/shells =      80


  Total number atoms/shells =      80

  Dimensionality = 3               :  Bulk   



  Cartesian lattice vectors (Angstroms) :

        7.400000    0.000000    0.000000
        0.000000    7.400000    0.000000
        0.000000    0.000000    7.400000

  Cell parameters (Angstroms/Degrees):

  a =       7.4000    alpha =  90.0000
  b =       7.4000    beta  =  90.0000
  c =       7.4000    gamma =  90.0000

  Initial cell volume =         405.224000 Angs**3

  Temperature of configuration =   0.00     K 

  Pressure of configuration =         0.000 GPa 

  Fractional coordinates of asymmetric unit :

--------------------------------------------------------------------------------
   No.  Atomic       x           y          z         Charge      Occupancy
        Label      (Frac)      (Frac)     (Frac)        (e)         (Frac)  
--------------------------------------------------------------------------------
      1 La    c    0.000000    0.000000    0.000000     5.14900    1.000000    
      2 La    c    0.000000 *  0.000000 *  0.500000 *   5.14900    1.000000    
      3 La    c    0.000000 *  0.500000 *  0.000000 *   5.14900    1.000000    
      4 La    c    0.000000 *  0.500000 *  0.500000 *   5.14900    1.000000    
      5 La    c    0.500000 *  0.000000 *  0.000000 *   5.14900    1.000000    
      6 La    c    0.500000 *  0.000000 *  0.500000 *   5.14900    1.000000    
      7 La    c    0.500000 *  0.500000 *  0.000000 *   5.14900    1.000000    
      8 La    c    0.500000 *  0.500000 *  0.500000 *   5.14900    1.000000    
      9 Al    c    0.250000 *  0.250000 *  0.250000 *   0.04300    1.000000    
     10 Fe    c    0.250000 *  0.250000 *  0.750000 *   1.97100    1.000000    
     11 Fe    c    0.250000 *  0.750000 *  0.250000 *   1.97100    1.000000    
     12 Fe    c    0.250000 *  0.750000 *  0.750000 *   1.97100    1.000000    
     13 Fe    c    0.750000 *  0.250000 *  0.250000 *   1.97100    1.000000    
     14 Fe    c    0.750000 *  0.250000 *  0.750000 *   1.97100    1.000000    
     15 Fe    c    0.750000 *  0.750000 *  0.250000 *   1.97100    1.000000    
     16 Al    c    0.750000 *  0.750000 *  0.750000 *   0.04300    1.000000    
     17 O     c    0.250000 *  0.250000 *  0.000000 *   0.51300    1.000000    
     18 O     c    0.250000 *  0.250000 *  0.500000 *   0.51300    1.000000    
     19 O     c    0.250000 *  0.750000 *  0.000000 *   0.51300    1.000000    
     20 O     c    0.250000 *  0.750000 *  0.500000 *   0.51300    1.000000    
     21 O     c    0.750000 *  0.250000 *  0.000000 *   0.51300    1.000000    
     22 O     c    0.750000 *  0.250000 *  0.500000 *   0.51300    1.000000    
     23 O     c    0.750000 *  0.750000 *  0.000000 *   0.51300    1.000000    
     24 O     c    0.750000 *  0.750000 *  0.500000 *   0.51300    1.000000    
     25 O     c    0.000000 *  0.250000 *  0.250000 *   0.51300    1.000000    
     26 O     c    0.000000 *  0.250000 *  0.750000 *   0.51300    1.000000    
     27 O     c    0.000000 *  0.750000 *  0.250000 *   0.51300    1.000000    
     28 O     c    0.000000 *  0.750000 *  0.750000 *   0.51300    1.000000    
     29 O     c    0.500000 *  0.250000 *  0.250000 *   0.51300    1.000000    
     30 O     c    0.500000 *  0.250000 *  0.750000 *   0.51300    1.000000    
     31 O     c    0.500000 *  0.750000 *  0.250000 *   0.51300    1.000000    
     32 O     c    0.500000 *  0.750000 *  0.750000 *   0.51300    1.000000    
     33 O     c    0.250000 *  0.000000 *  0.250000 *   0.51300    1.000000    
     34 O     c    0.250000 *  0.000000 *  0.750000 *   0.51300    1.000000    
     35 O     c    0.250000 *  0.500000 *  0.250000 *   0.51300    1.000000    
     36 O     c    0.250000 *  0.500000 *  0.750000 *   0.51300    1.000000    
     37 O     c    0.750000 *  0.000000 *  0.250000 *   0.51300    1.000000    
     38 O     c    0.750000 *  0.000000 *  0.750000 *   0.51300    1.000000    
     39 O     c    0.750000 *  0.500000 *  0.250000 *   0.51300    1.000000    
     40 O     c    0.750000 *  0.500000 *  0.750000 *   0.51300    1.000000    
     41 La    s    0.000000 *  0.000000 *  0.000000 *  -2.14900    1.000000    
     42 La    s    0.000000 *  0.000000 *  0.500000 *  -2.14900    1.000000    
     43 La    s    0.000000 *  0.500000 *  0.000000 *  -2.14900    1.000000    
     44 La    s    0.000000 *  0.500000 *  0.500000 *  -2.14900    1.000000    
     45 La    s    0.500000 *  0.000000 *  0.000000 *  -2.14900    1.000000    
     46 La    s    0.500000 *  0.000000 *  0.500000 *  -2.14900    1.000000    
     47 La    s    0.500000 *  0.500000 *  0.000000 *  -2.14900    1.000000    
     48 La    s    0.500000 *  0.500000 *  0.500000 *  -2.14900    1.000000    
     49 Al    s    0.250000 *  0.250000 *  0.250000 *   2.95700    1.000000    
     50 Fe    s    0.250000 *  0.250000 *  0.750000 *   1.02900    1.000000    
     51 Fe    s    0.250000 *  0.750000 *  0.250000 *   1.02900    1.000000    
     52 Fe    s    0.250000 *  0.750000 *  0.750000 *   1.02900    1.000000    
     53 Fe    s    0.750000 *  0.250000 *  0.250000 *   1.02900    1.000000    
     54 Fe    s    0.750000 *  0.250000 *  0.750000 *   1.02900    1.000000    
     55 Fe    s    0.750000 *  0.750000 *  0.250000 *   1.02900    1.000000    
     56 Al    s    0.750000 *  0.750000 *  0.750000 *   2.95700    1.000000    
     57 O     s    0.250000 *  0.250000 *  0.000000 *  -2.51300    1.000000    
     58 O     s    0.250000 *  0.250000 *  0.500000 *  -2.51300    1.000000    
     59 O     s    0.250000 *  0.750000 *  0.000000 *  -2.51300    1.000000    
     60 O     s    0.250000 *  0.750000 *  0.500000 *  -2.51300    1.000000    
     61 O     s    0.750000 *  0.250000 *  0.000000 *  -2.51300    1.000000    
     62 O     s    0.750000 *  0.250000 *  0.500000 *  -2.51300    1.000000    
     63 O     s    0.750000 *  0.750000 *  0.000000 *  -2.51300    1.000000    
     64 O     s    0.750000 *  0.750000 *  0.500000 *  -2.51300    1.000000    
     65 O     s    0.000000 *  0.250000 *  0.250000 *  -2.51300    1.000000    
     66 O     s    0.000000 *  0.250000 *  0.750000 *  -2.51300    1.000000    
     67 O     s    0.000000 *  0.750000 *  0.250000 *  -2.51300    1.000000    
     68 O     s    0.000000 *  0.750000 *  0.750000 *  -2.51300    1.000000    
     69 O     s    0.500000 *  0.250000 *  0.250000 *  -2.51300    1.000000    
     70 O     s    0.500000 *  0.250000 *  0.750000 *  -2.51300    1.000000    
     71 O     s    0.500000 *  0.750000 *  0.250000 *  -2.51300    1.000000    
     72 O     s    0.500000 *  0.750000 *  0.750000 *  -2.51300    1.000000    
     73 O     s    0.250000 *  0.000000 *  0.250000 *  -2.51300    1.000000    
     74 O     s    0.250000 *  0.000000 *  0.750000 *  -2.51300    1.000000    
     75 O     s    0.250000 *  0.500000 *  0.250000 *  -2.51300    1.000000    
     76 O     s    0.250000 *  0.500000 *  0.750000 *  -2.51300    1.000000    
     77 O     s    0.750000 *  0.000000 *  0.250000 *  -2.51300    1.000000    
     78 O     s    0.750000 *  0.000000 *  0.750000 *  -2.51300    1.000000    
     79 O     s    0.750000 *  0.500000 *  0.250000 *  -2.51300    1.000000    
     80 O     s    0.750000 *  0.500000 *  0.750000 *  -2.51300    1.000000    
--------------------------------------------------------------------------------



********************************************************************************
*  General input information                                                   *
********************************************************************************

  Species output for all configurations : 

--------------------------------------------------------------------------------
  Species    Type    Atomic    Atomic    Charge       Radii (Angs)     Library
                     Number     Mass       (e)     Cova   Ionic  VDW   Symbol
--------------------------------------------------------------------------------
    Fe       Core       26      55.85   1.971000   1.340  0.000  2.000          
    Fe       Shell      26       0.00   1.029000   1.340  0.000  2.000          
    Al       Core       13      26.98   0.043000   1.350  0.000  2.050          
    Al       Shell      13       0.00   2.957000   1.350  0.000  2.050          
    La       Core       57     138.91   5.149000   1.870  0.000  2.790          
    La       Shell      57       0.00  -2.149000   1.870  0.000  2.790          
    O        Core        8      16.00   0.513000   0.730  0.000  1.360          
    O        Shell       8       0.00  -2.513000   0.730  0.000  1.360          
--------------------------------------------------------------------------------


  Lattice summation method               =    Ewald          (3-D)
                                         =    Parry          (2-D)
                                         =    Saunders et al (1-D)
  Accuracy factor for lattice sums       =   12.000


  Analytic derivatives to be used

  Time limit = Infinity

  Maximum range for interatomic potentials =    100000.000000 Angstroms

  General interatomic potentials :

--------------------------------------------------------------------------------
Atom  Types   Potential      Parameter       Value         Units   Cutoffs(Ang)
  1     2                                                            Min /  Max 
--------------------------------------------------------------------------------
O    s Fe   s Buckingham    Buckingham A     3219.3350    eV        0.000 10.000
                            Buckingham rho  0.26410000    Ang       
                            Buckingham C     0.0000000    eV*Ang^6  
--------------------------------------------------------------------------------
O    s Al   s Buckingham    Buckingham A     2409.5050    eV        0.000 10.000
                            Buckingham rho  0.26490000    Ang       
                            Buckingham C     0.0000000    eV*Ang^6  
--------------------------------------------------------------------------------
O    s La   s Buckingham    Buckingham A     5436.8270    eV        0.000 10.000
                            Buckingham rho  0.29390000    Ang       
                            Buckingham C     0.0000000    eV*Ang^6  
--------------------------------------------------------------------------------
O    s O    s Buckingham    Buckingham A     25.410000    eV        0.000 12.000
                            Buckingham rho  0.69370000    Ang       
                            Buckingham C     32.320000    eV*Ang^6  
--------------------------------------------------------------------------------
Fe   c Fe   s Spring (c-s)  Spring k 2       179.58000    eV*Ang^-2 0.000  0.800
                            Spring k 4       0.0000000    eV*Ang^-4 
--------------------------------------------------------------------------------
Al   c Al   s Spring (c-s)  Spring k 2       403.98000    eV*Ang^-2 0.000  0.800
                            Spring k 4       0.0000000    eV*Ang^-4 
--------------------------------------------------------------------------------
La   c La   s Spring (c-s)  Spring k 2       173.90000    eV*Ang^-2 0.000  0.800
                            Spring k 4       0.0000000    eV*Ang^-4 
--------------------------------------------------------------------------------
O    c O    s Spring (c-s)  Spring k 2       20.530000    eV*Ang^-2 0.000  0.800
                            Spring k 4       0.0000000    eV*Ang^-4 
--------------------------------------------------------------------------------

********************************************************************************
*  Output for configuration   1                                                *
********************************************************************************


  Components of energy : 

--------------------------------------------------------------------------------
  Interatomic potentials     =         267.29800011 eV    
  Monopole - monopole (real) =        -714.63043649 eV    
  Monopole - monopole (recip)=        -672.57146413 eV    
  Monopole - monopole (total)=       -1387.20190062 eV    
--------------------------------------------------------------------------------
  Total lattice energy       =       -1119.90390050 eV    
--------------------------------------------------------------------------------
  Total lattice energy       =         -108053.6071 kJ/(mole unit cells)
--------------------------------------------------------------------------------


  Number of variables =      243

  Maximum number of calculations  =          1000
  Maximum Hessian update interval =            10
  Maximum step size               =   1.000000000
  Maximum parameter tolerance     =   0.000010000
  Maximum function  tolerance     =   0.000010000
  Maximum gradient  tolerance     =   0.001000000
  Maximum gradient  component     =   0.010000000

  Symmetry not applied to optimisation

  Cell parameters to be optimised using strains

  Newton-Raphson optimiser to be used

  BFGS hessian update to be used

  Hessian eigenvalue shifts to be used to ensure all values are positive

  Lower half triangular hessian to be used

  Start of bulk optimisation :

  Cycle:      0 Energy:     -1119.903901  Gnorm:      1.081730  CPU:    0.039
  ** Hessian lowest eigenvalue is negative =  -6.113E-02
  ** Hessian calculated **
  Cycle:      1 Energy:     -1130.889970  Gnorm:      0.043852  CPU:    0.067
  ** Hessian lowest eigenvalue is negative =  -3.604E+01
  ** Hessian calculated **
  Cycle:      2 Energy:     -1130.910086  Gnorm:      0.000324  CPU:    0.119


  **** Optimisation achieved ****


  Final energy =   -1130.91008841 eV      
  Final Gnorm  =       0.00000721

  Components of energy : 

--------------------------------------------------------------------------------
  Interatomic potentials     =         187.91270294 eV    
  Monopole - monopole (real) =        -596.97104498 eV    
  Monopole - monopole (recip)=        -721.85174637 eV    
  Monopole - monopole (total)=       -1318.82279135 eV    
--------------------------------------------------------------------------------
  Total lattice energy       =       -1130.91008841 eV    
--------------------------------------------------------------------------------
  Total lattice energy       =         -109115.5360 kJ/(mole unit cells)
--------------------------------------------------------------------------------

  Final fractional coordinates of atoms :

--------------------------------------------------------------------------------
   No.  Atomic        x           y          z          Radius
        Label       (Frac)      (Frac)     (Frac)       (Angs) 
--------------------------------------------------------------------------------
     1  La    c     0.000000    0.000000    0.000000    0.000000
     2  La    c     0.000000    1.000000    0.500000    0.000000
     3  La    c     1.000000    0.500000    0.000000    0.000000
     4  La    c     1.000000    0.500000    0.500000    0.000000
     5  La    c     0.500000    0.000000    1.000000    0.000000
     6  La    c     0.500000    0.000000    0.500000    0.000000
     7  La    c     0.500000    0.500000    1.000000    0.000000
     8  La    c     0.500000    0.500000    0.500000    0.000000
     9  Al    c     0.250000    0.250000    0.250000    0.000000
    10  Fe    c     0.250000    0.250000    0.750000    0.000000
    11  Fe    c     0.250000    0.750000    0.250000    0.000000
    12  Fe    c     0.250000    0.750000    0.750000    0.000000
    13  Fe    c     0.750000    0.250000    0.250000    0.000000
    14  Fe    c     0.750000    0.250000    0.750000    0.000000
    15  Fe    c     0.750000    0.750000    0.250000    0.000000
    16  Al    c     0.750000    0.750000    0.750000    0.000000
    17  O     c     0.250000    0.250000    0.004588    0.000000
    18  O     c     0.250000    0.250000    0.495412    0.000000
    19  O     c     0.250000    0.750000    0.000000    0.000000
    20  O     c     0.250000    0.750000    0.500000    0.000000
    21  O     c     0.750000    0.250000    0.000000    0.000000
    22  O     c     0.750000    0.250000    0.500000    0.000000
    23  O     c     0.750000    0.750000    0.995412    0.000000
    24  O     c     0.750000    0.750000    0.504588    0.000000
    25  O     c     0.004588    0.250000    0.250000    0.000000
    26  O     c     0.000000    0.250000    0.750000    0.000000
    27  O     c     0.000000    0.750000    0.250000    0.000000
    28  O     c     0.995412    0.750000    0.750000    0.000000
    29  O     c     0.495412    0.250000    0.250000    0.000000
    30  O     c     0.500000    0.250000    0.750000    0.000000
    31  O     c     0.500000    0.750000    0.250000    0.000000
    32  O     c     0.504588    0.750000    0.750000    0.000000
    33  O     c     0.250000    0.004588    0.250000    0.000000
    34  O     c     0.250000    0.000000    0.750000    0.000000
    35  O     c     0.250000    0.495412    0.250000    0.000000
    36  O     c     0.250000    0.500000    0.750000    0.000000
    37  O     c     0.750000    0.000000    0.250000    0.000000
    38  O     c     0.750000    0.995412    0.750000    0.000000
    39  O     c     0.750000    0.500000    0.250000    0.000000
    40  O     c     0.750000    0.504588    0.750000    0.000000
    41  La    s     0.000000    0.000000    0.000000    0.000000
    42  La    s     0.000000    1.000000    0.500000    0.000000
    43  La    s     1.000000    0.500000    0.000000    0.000000
    44  La    s     1.000000    0.500000    0.500000    0.000000
    45  La    s     0.500000    0.000000    1.000000    0.000000
    46  La    s     0.500000    0.000000    0.500000    0.000000
    47  La    s     0.500000    0.500000    1.000000    0.000000
    48  La    s     0.500000    0.500000    0.500000    0.000000
    49  Al    s     0.250000    0.250000    0.250000    0.000000
    50  Fe    s     0.250000    0.250000    0.750000    0.000000
    51  Fe    s     0.250000    0.750000    0.250000    0.000000
    52  Fe    s     0.250000    0.750000    0.750000    0.000000
    53  Fe    s     0.750000    0.250000    0.250000    0.000000
    54  Fe    s     0.750000    0.250000    0.750000    0.000000
    55  Fe    s     0.750000    0.750000    0.250000    0.000000
    56  Al    s     0.750000    0.750000    0.750000    0.000000
    57  O     s     0.250000    0.250000    0.004716    0.000000
    58  O     s     0.250000    0.250000    0.495284    0.000000
    59  O     s     0.250000    0.750000    0.000000    0.000000
    60  O     s     0.250000    0.750000    0.500000    0.000000
    61  O     s     0.750000    0.250000    0.000000    0.000000
    62  O     s     0.750000    0.250000    0.500000    0.000000
    63  O     s     0.750000    0.750000    0.995284    0.000000
    64  O     s     0.750000    0.750000    0.504716    0.000000
    65  O     s     0.004716    0.250000    0.250000    0.000000
    66  O     s     0.000000    0.250000    0.750000    0.000000
    67  O     s     0.000000    0.750000    0.250000    0.000000
    68  O     s     0.995284    0.750000    0.750000    0.000000
    69  O     s     0.495284    0.250000    0.250000    0.000000
    70  O     s     0.500000    0.250000    0.750000    0.000000
    71  O     s     0.500000    0.750000    0.250000    0.000000
    72  O     s     0.504716    0.750000    0.750000    0.000000
    73  O     s     0.250000    0.004716    0.250000    0.000000
    74  O     s     0.250000    0.000000    0.750000    0.000000
    75  O     s     0.250000    0.495284    0.250000    0.000000
    76  O     s     0.250000    0.500000    0.750000    0.000000
    77  O     s     0.750000    0.000000    0.250000    0.000000
    78  O     s     0.750000    0.995284    0.750000    0.000000
    79  O     s     0.750000    0.500000    0.250000    0.000000
    80  O     s     0.750000    0.504716    0.750000    0.000000
--------------------------------------------------------------------------------

  Final Cartesian lattice vectors (Angstroms) :

        7.783832    0.000000    0.000000
        0.000000    7.783832   -0.000000
        0.000000   -0.000000    7.783832


  Final cell parameters and derivatives :

--------------------------------------------------------------------------------
       a            7.783832 Angstrom     dE/de1(xx)     0.000066 eV/strain
       b            7.783832 Angstrom     dE/de2(yy)     0.000066 eV/strain
       c            7.783832 Angstrom     dE/de3(zz)     0.000066 eV/strain
       alpha       90.000000 Degrees      dE/de4(yz)    -0.000000 eV/strain
       beta        90.000000 Degrees      dE/de5(xz)     0.000000 eV/strain
       gamma       90.000000 Degrees      dE/de6(xy)     0.000000 eV/strain
--------------------------------------------------------------------------------

  Primitive cell volume =           471.607131 Angs**3

  Density of cell =      6.634908 g/cm**3

  Non-primitive cell volume =           471.607131 Angs**3


  Final internal derivatives :

--------------------------------------------------------------------------------
   No.  Atomic          a             b             c           Radius
        Label          (eV)          (eV)          (eV)        (eV/Angs)
--------------------------------------------------------------------------------
      1 La    c       0.000000      0.000000      0.000000      0.000000
      2 La    c      -0.000000      0.000000      0.000000      0.000000
      3 La    c       0.000000     -0.000000     -0.000000      0.000000
      4 La    c       0.000000      0.000000     -0.000000      0.000000
      5 La    c      -0.000000     -0.000000      0.000000      0.000000
      6 La    c       0.000000     -0.000000      0.000000      0.000000
      7 La    c       0.000000     -0.000000      0.000000      0.000000
      8 La    c       0.000000     -0.000000      0.000000      0.000000
      9 Al    c       0.000000     -0.000000      0.000000      0.000000
     10 Fe    c       0.000000     -0.000000      0.000000      0.000000
     11 Fe    c      -0.000000     -0.000000      0.000000      0.000000
     12 Fe    c       0.000000      0.000000      0.000000      0.000000
     13 Fe    c       0.000000     -0.000000      0.000000      0.000000
     14 Fe    c      -0.000000     -0.000000      0.000000      0.000000
     15 Fe    c       0.000000      0.000000      0.000000      0.000000
     16 Al    c       0.000000     -0.000000      0.000000      0.000000
     17 O     c      -0.000000     -0.000000     -0.000425      0.000000
     18 O     c       0.000000      0.000000      0.000425      0.000000
     19 O     c       0.000000     -0.000000      0.000000      0.000000
     20 O     c       0.000000      0.000000      0.000000      0.000000
     21 O     c       0.000000     -0.000000      0.000000      0.000000
     22 O     c       0.000000      0.000000      0.000000      0.000000
     23 O     c      -0.000000     -0.000000      0.000425      0.000000
     24 O     c       0.000000      0.000000     -0.000425      0.000000
     25 O     c      -0.000425      0.000000      0.000000      0.000000
     26 O     c       0.000000      0.000000     -0.000000      0.000000
     27 O     c       0.000000      0.000000     -0.000000      0.000000
     28 O     c       0.000425      0.000000      0.000000      0.000000
     29 O     c       0.000425     -0.000000     -0.000000      0.000000
     30 O     c       0.000000     -0.000000      0.000000      0.000000
     31 O     c       0.000000     -0.000000      0.000000      0.000000
     32 O     c      -0.000425     -0.000000     -0.000000      0.000000
     33 O     c      -0.000000     -0.000425      0.000000      0.000000
     34 O     c      -0.000000     -0.000000      0.000000      0.000000
     35 O     c       0.000000      0.000425     -0.000000      0.000000
     36 O     c       0.000000     -0.000000     -0.000000      0.000000
     37 O     c      -0.000000     -0.000000      0.000000      0.000000
     38 O     c      -0.000000      0.000425      0.000000      0.000000
     39 O     c       0.000000     -0.000000     -0.000000      0.000000
     40 O     c       0.000000     -0.000425     -0.000000      0.000000
     41 La    s       0.000000     -0.000000     -0.000000      0.000000
     42 La    s       0.000000     -0.000000     -0.000000      0.000000
     43 La    s      -0.000000     -0.000000      0.000000      0.000000
     44 La    s      -0.000000     -0.000000      0.000000      0.000000
     45 La    s       0.000000      0.000000     -0.000000      0.000000
     46 La    s      -0.000000      0.000000     -0.000000      0.000000
     47 La    s      -0.000000      0.000000     -0.000000      0.000000
     48 La    s      -0.000000      0.000000     -0.000000      0.000000
     49 Al    s       0.000000      0.000000      0.000000      0.000000
     50 Fe    s       0.000000      0.000000     -0.000000      0.000000
     51 Fe    s      -0.000000      0.000000     -0.000000      0.000000
     52 Fe    s      -0.000000      0.000000      0.000000      0.000000
     53 Fe    s      -0.000000      0.000000      0.000000      0.000000
     54 Fe    s      -0.000000      0.000000     -0.000000      0.000000
     55 Fe    s      -0.000000      0.000000     -0.000000      0.000000
     56 Al    s      -0.000000      0.000000      0.000000      0.000000
     57 O     s       0.000000     -0.000000     -0.000272      0.000000
     58 O     s      -0.000000      0.000000      0.000272      0.000000
     59 O     s      -0.000000      0.000000     -0.000000      0.000000
     60 O     s      -0.000000     -0.000000      0.000000      0.000000
     61 O     s      -0.000000      0.000000     -0.000000      0.000000
     62 O     s      -0.000000     -0.000000     -0.000000      0.000000
     63 O     s       0.000000     -0.000000      0.000272      0.000000
     64 O     s      -0.000000      0.000000     -0.000272      0.000000
     65 O     s      -0.000272      0.000000     -0.000000      0.000000
     66 O     s      -0.000000     -0.000000      0.000000      0.000000
     67 O     s      -0.000000     -0.000000      0.000000      0.000000
     68 O     s       0.000272      0.000000     -0.000000      0.000000
     69 O     s       0.000272     -0.000000     -0.000000      0.000000
     70 O     s      -0.000000      0.000000     -0.000000      0.000000
     71 O     s      -0.000000      0.000000     -0.000000      0.000000
     72 O     s      -0.000272     -0.000000     -0.000000      0.000000
     73 O     s      -0.000000     -0.000272      0.000000      0.000000
     74 O     s       0.000000     -0.000000     -0.000000      0.000000
     75 O     s       0.000000      0.000272     -0.000000      0.000000
     76 O     s      -0.000000      0.000000      0.000000      0.000000
     77 O     s       0.000000      0.000000     -0.000000      0.000000
     78 O     s      -0.000000      0.000272      0.000000      0.000000
     79 O     s      -0.000000      0.000000      0.000000      0.000000
     80 O     s       0.000000     -0.000272     -0.000000      0.000000
--------------------------------------------------------------------------------
  Maximum abs         0.000425      0.000425      0.000425      0.000000
--------------------------------------------------------------------------------


  Time to end of optimisation =       0.1389 seconds


  Peak dynamic memory used =       3.39 MB 


  Timing analysis for GULP :

--------------------------------------------------------------------------------
  Task / Subroutine                                          Time (Seconds)
--------------------------------------------------------------------------------
  Calculation of reciprocal space energy and derivatives          0.0139
  Calculation of real space energy and derivatives                0.1117
  Calculation and manipulation of Hessian matrix                  0.0044
  Calculation of matrix inversion                                 0.0037
--------------------------------------------------------------------------------
  Total CPU time                                                  0.1389
--------------------------------------------------------------------------------


  Job Finished at 17:31.35  5th April      2026                               

