Mg28Ni4O32
   1.00000000
   8.440342864  -0.000004712   0.000004712
  -0.000004712   8.440342864  -0.000004712
   0.000004712  -0.000004712   8.440342864
  Ni  Mg  O
  4  28  32
Direct configuration=     1
   0.000000000   0.000000000   0.000000000
   0.000000000   0.249973763   0.249973763
   0.249973763   0.000000000   0.750026237
   0.750026237   0.750026237   0.000000000
   0.000087396   0.000087396   0.500000000
   0.999912604   0.500000000   0.000087396
   0.000000000   0.499879598   0.499879598
   0.500000000   0.999912604   0.999912604
   0.499879598   0.000000000   0.500120402
   0.500120402   0.500120402   0.000000000
   0.500000000   0.500000000   0.500000000
   0.000104043   0.249816823   0.750045215
   0.999895957   0.750045215   0.249816823
   0.000000000   0.750164984   0.750164984
   0.500000000   0.250003090   0.250003090
   0.499916724   0.249937915   0.749979095
   0.500083276   0.749979095   0.249937915
   0.500000000   0.750049884   0.750049884
   0.249816823   0.000104043   0.249954785
   0.249937915   0.499916724   0.250020905
   0.250003090   0.500000000   0.749996910
   0.750164984   0.000000000   0.249835016
   0.750045215   0.999895957   0.750183177
   0.750049884   0.500000000   0.249950116
   0.749979095   0.500083276   0.750062085
   0.249835016   0.249835016   0.000000000
   0.249950116   0.249950116   0.500000000
   0.249954785   0.750183177   0.999895957
   0.250020905   0.750062085   0.500083276
   0.750183177   0.249954785   0.000104043
   0.750062085   0.250020905   0.499916724
   0.749996910   0.749996910   0.500000000
   0.250185870   0.249896559   0.249940195
   0.249896559   0.250185870   0.750059805
   0.249939562   0.750060438   0.249939562
   0.249940195   0.749814130   0.750103441
   0.749814130   0.249940195   0.249896559
   0.750060438   0.249939562   0.750060438
   0.750103441   0.750059805   0.250185870
   0.750059805   0.750103441   0.749814130
   0.250060257   0.999969824   0.000192419
   0.249941967   0.999977546   0.499803955
   0.249920246   0.500043861   0.999936225
   0.249964619   0.499998166   0.500054531
   0.749939743   0.000192419   0.999969824
   0.750079754   0.999936225   0.500043861
   0.750058033   0.499803955   0.999977546
   0.750035381   0.500054531   0.499998166
   0.999969824   0.250060257   0.999807581
   0.999977546   0.249941967   0.500196045
   0.000192419   0.749939743   0.000030176
   0.999936225   0.750079754   0.499956139
   0.500043861   0.249920246   0.000063775
   0.499998166   0.249964619   0.499945469
   0.499803955   0.750058033   0.000022454
   0.500054531   0.750035381   0.500001834
   0.000030176   0.999807581   0.250060257
   0.999807581   0.000030176   0.749939743
   0.000022454   0.500196045   0.249941967
   0.000063775   0.499956139   0.750079754
   0.499956139   0.000063775   0.249920246
   0.500196045   0.000022454   0.750058033
   0.500001834   0.499945469   0.249964619
   0.499945469   0.500001834   0.750035381
Mg28Ni4O32
   1.00000000
   8.442195422  -0.000030660   0.000030660
  -0.000030660   8.442195422  -0.000030660
   0.000030660  -0.000030660   8.442195422
  Ni  Mg  O
  4  28  32
Direct configuration=     2
   0.000000000   0.000000000   0.000000000
   0.000000000   0.249834776   0.249834776
   0.249834776   0.000000000   0.750165224
   0.750165224   0.750165224   0.000000000
   0.000429069   0.000429069   0.500000000
   0.999570931   0.500000000   0.000429069
   0.000000000   0.499380422   0.499380422
   0.500000000   0.999570931   0.999570931
   0.499380422   0.000000000   0.500619578
   0.500619578   0.500619578   0.000000000
   0.500000000   0.500000000   0.500000000
   0.000539766   0.248992186   0.750269735
   0.999460234   0.750269735   0.248992186
   0.000000000   0.750898069   0.750898069
   0.500000000   0.249948579   0.249948579
   0.499582399   0.249657810   0.749951586
   0.500417601   0.749951586   0.249657810
   0.500000000   0.750274575   0.750274575
   0.248992186   0.000539766   0.249730265
   0.249657810   0.499582399   0.250048414
   0.249948579   0.500000000   0.750051421
   0.750898069   0.000000000   0.249101931
   0.750269735   0.999460234   0.751007814
   0.750274575   0.500000000   0.249725425
   0.749951586   0.500417601   0.750342190
   0.249101931   0.249101931   0.000000000
   0.249725425   0.249725425   0.500000000
   0.249730265   0.751007814   0.999460234
   0.250048414   0.750342190   0.500417601
   0.751007814   0.249730265   0.000539766
   0.750342190   0.250048414   0.499582399
   0.750051421   0.750051421   0.500000000
   0.250949591   0.249432631   0.249674376
   0.249432631   0.250949591   0.750325624
   0.249676040   0.750323960   0.249676040
   0.249674376   0.749050409   0.750567369
   0.749050409   0.249674376   0.249432631
   0.750323960   0.249676040   0.750323960
   0.750567369   0.750325624   0.250949591
   0.750325624   0.750567369   0.749050409
   0.250277933   0.999857796   0.001016336
   0.249669944   0.999899609   0.498965874
   0.249555722   0.500216123   0.999686111
   0.249802935   0.499959395   0.500266226
   0.749722067   0.001016336   0.999857796
   0.750444278   0.999686111   0.500216123
   0.750330056   0.498965874   0.999899609
   0.750197065   0.500266226   0.499959395
   0.999857796   0.250277933   0.998983664
   0.999899609   0.249669944   0.501034126
   0.001016336   0.749722067   0.000142204
   0.999686111   0.750444278   0.499783877
   0.500216123   0.249555722   0.000313889
   0.499959395   0.249802935   0.499733774
   0.498965874   0.750330056   0.000100391
   0.500266226   0.750197065   0.500040605
   0.000142204   0.998983664   0.250277933
   0.998983664   0.000142204   0.749722067
   0.000100391   0.501034126   0.249669944
   0.000313889   0.499783877   0.750444278
   0.499783877   0.000313889   0.249555722
   0.501034126   0.000100391   0.750330056
   0.500040605   0.499733774   0.249802935
   0.499733774   0.500040605   0.750197065
Mg28Ni4O32
   1.00000000
   8.442748753  -0.000038750   0.000038750
  -0.000038750   8.442748753  -0.000038750
   0.000038750  -0.000038750   8.442748753
  Ni  Mg  O
  4  28  32
Direct configuration=     3
   0.000000000   0.000000000   0.000000000
   0.000000000   0.249799076   0.249799076
   0.249799076   0.000000000   0.750200924
   0.750200924   0.750200924   0.000000000
   0.000427792   0.000427792   0.500000000
   0.999572208   0.500000000   0.000427792
   0.000000000   0.499352671   0.499352671
   0.500000000   0.999572208   0.999572208
   0.499352671   0.000000000   0.500647329
   0.500647329   0.500647329   0.000000000
   0.500000000   0.500000000   0.500000000
   0.000565702   0.248887143   0.750313238
   0.999434298   0.750313238   0.248887143
   0.000000000   0.750983619   0.750983619
   0.500000000   0.249883352   0.249883352
   0.499574146   0.249623469   0.750005266
   0.500425854   0.750005266   0.249623469
   0.500000000   0.750302472   0.750302472
   0.248887143   0.000565702   0.249686762
   0.249623469   0.499574146   0.249994734
   0.249883352   0.500000000   0.750116648
   0.750983619   0.000000000   0.249016381
   0.750313238   0.999434298   0.751112857
   0.750302472   0.500000000   0.249697528
   0.750005266   0.500425854   0.750376531
   0.249016381   0.249016381   0.000000000
   0.249697528   0.249697528   0.500000000
   0.249686762   0.751112857   0.999434298
   0.249994734   0.750376531   0.500425854
   0.751112857   0.249686762   0.000565702
   0.750376531   0.249994734   0.499574146
   0.750116648   0.750116648   0.500000000
   0.250979823   0.249376662   0.249640669
   0.249376662   0.250979823   0.750359331
   0.249648512   0.750351488   0.249648512
   0.249640669   0.749020177   0.750623338
   0.749020177   0.249640669   0.249376662
   0.750351488   0.249648512   0.750351488
   0.750623338   0.750359331   0.250979823
   0.750359331   0.750623338   0.749020177
   0.250257013   0.999865973   0.001081524
   0.249625295   0.999908978   0.498899223
   0.249503946   0.500215496   0.999688013
   0.249777459   0.499929470   0.500263346
   0.749742987   0.001081524   0.999865973
   0.750496054   0.999688013   0.500215496
   0.750374705   0.498899223   0.999908978
   0.750222541   0.500263346   0.499929470
   0.999865973   0.250257013   0.998918476
   0.999908978   0.249625295   0.501100777
   0.001081524   0.749742987   0.000134027
   0.999688013   0.750496054   0.499784504
   0.500215496   0.249503946   0.000311987
   0.499929470   0.249777459   0.499736654
   0.498899223   0.750374705   0.000091022
   0.500263346   0.750222541   0.500070530
   0.000134027   0.998918476   0.250257013
   0.998918476   0.000134027   0.749742987
   0.000091022   0.501100777   0.249625295
   0.000311987   0.499784504   0.750496054
   0.499784504   0.000311987   0.249503946
   0.501100777   0.000091022   0.750374705
   0.500070530   0.499736654   0.249777459
   0.499736654   0.500070530   0.750222541
Mg28Ni4O32
   1.00000000
   8.449847108  -0.000143369   0.000143369
  -0.000143369   8.449847108  -0.000143369
   0.000143369  -0.000143369   8.449847108
  Ni  Mg  O
  4  28  32
Direct configuration=     4
   0.000000000   0.000000000   0.000000000
   0.000000000   0.249386800   0.249386800
   0.249386800   0.000000000   0.750613200
   0.750613200   0.750613200   0.000000000
   0.000219111   0.000219111   0.500000000
   0.999780889   0.500000000   0.000219111
   1.000000000   0.499249299   0.499249299
   0.500000000   0.999780889   0.999780889
   0.499249299   0.000000000   0.500750701
   0.500750701   0.500750701   0.000000000
   0.500000000   0.500000000   0.500000000
   0.000673043   0.247896080   0.750769887
   0.999326957   0.750769887   0.247896080
   0.000000000   0.751750927   0.751750927
   0.500000000   0.249013544   0.249013544
   0.499650174   0.249318929   0.750765877
   0.500349826   0.750765877   0.249318929
   0.500000000   0.750556073   0.750556073
   0.247896080   0.000673043   0.249230113
   0.249318929   0.499650174   0.249234123
   0.249013544   0.500000000   0.750986456
   0.751750927   0.000000000   0.248249073
   0.750769887   0.999326957   0.752103920
   0.750556073   0.500000000   0.249443927
   0.750765877   0.500349826   0.750681071
   0.248249073   0.248249073   0.000000000
   0.249443927   0.249443927   0.500000000
   0.249230113   0.752103920   0.999326957
   0.249234123   0.750681071   0.500349826
   0.752103920   0.249230113   0.000673043
   0.750681071   0.249234123   0.499650174
   0.750986456   0.750986456   0.500000000
   0.250934915   0.248863333   0.249302255
   0.248863333   0.250934915   0.750697745
   0.249405124   0.750594876   0.249405124
   0.249302255   0.749065085   0.751136667
   0.749065085   0.249302255   0.248863333
   0.750594876   0.249405124   0.750594876
   0.751136667   0.750697745   0.250934915
   0.750697745   0.751136667   0.749065085
   0.249827375   0.000050584   0.001501846
   0.249150215   0.000075321   0.498467935
   0.248991011   0.500103678   0.999863689
   0.249494725   0.499546318   0.500100905
   0.750172625   0.001501846   0.000050584
   0.751008989   0.999863689   0.500103678
   0.750849785   0.498467935   0.000075321
   0.750505275   0.500100905   0.499546318
   0.000050584   0.249827375   0.998498154
   0.000075321   0.249150215   0.501532065
   0.001501846   0.750172625   0.999949416
   0.999863689   0.751008989   0.499896322
   0.500103678   0.248991011   0.000136311
   0.499546318   0.249494725   0.499899095
   0.498467935   0.750849785   0.999924679
   0.500100905   0.750505275   0.500453682
   0.999949416   0.998498154   0.249827375
   0.998498154   0.999949416   0.750172625
   0.999924679   0.501532065   0.249150215
   0.000136311   0.499896322   0.751008989
   0.499896322   0.000136311   0.248991011
   0.501532065   0.999924679   0.750849785
   0.500453682   0.499899095   0.249494725
   0.499899095   0.500453682   0.750505275
Mg28Ni4O32
   1.00000000
   8.454476705  -0.000212270   0.000212270
  -0.000212270   8.454476705  -0.000212270
   0.000212270  -0.000212270   8.454476705
  Ni  Mg  O
  4  28  32
Direct configuration=     5
   0.000000000   0.000000000   0.000000000
   0.000000000   0.249184238   0.249184238
   0.249184238   0.000000000   0.750815762
   0.750815762   0.750815762   0.000000000
   0.000007917   0.000007917   0.500000000
   0.999992083   0.500000000   0.000007917
   0.000000000   0.499320173   0.499320173
   0.500000000   0.999992083   0.999992083
   0.499320173   0.000000000   0.500679827
   0.500679827   0.500679827   0.000000000
   0.500000000   0.500000000   0.500000000
   0.000609752   0.247524840   0.750947057
   0.999390248   0.750947057   0.247524840
   0.000000000   0.752001890   0.752001890
   0.500000000   0.248514032   0.248514032
   0.499788839   0.249233366   0.751228335
   0.500211161   0.751228335   0.249233366
   0.500000000   0.750637519   0.750637519
   0.247524840   0.000609752   0.249052943
   0.249233366   0.499788839   0.248771665
   0.248514032   0.500000000   0.751485968
   0.752001890   0.000000000   0.247998110
   0.750947057   0.999390248   0.752475160
   0.750637519   0.500000000   0.249362481
   0.751228335   0.500211161   0.750766634
   0.247998110   0.247998110   0.000000000
   0.249362481   0.249362481   0.500000000
   0.249052943   0.752475160   0.999390248
   0.248771665   0.750766634   0.500211161
   0.752475160   0.249052943   0.000609752
   0.750766634   0.248771665   0.499788839
   0.751485968   0.751485968   0.500000000
   0.250648951   0.248682636   0.249138174
   0.248682636   0.250648951   0.750861826
   0.249313038   0.750686962   0.249313038
   0.249138174   0.749351049   0.751317364
   0.749351049   0.249138174   0.248682636
   0.750686962   0.249313038   0.750686962
   0.751317364   0.750861826   0.250648951
   0.750861826   0.751317364   0.749351049
   0.249486120   0.000201735   0.001499898
   0.248923926   0.000181933   0.498468214
   0.248783321   0.499981599   0.000046043
   0.249336473   0.499344335   0.499942156
   0.750513880   0.001499898   0.000201735
   0.751216679   0.000046043   0.499981599
   0.751076074   0.498468214   0.000181933
   0.750663527   0.499942156   0.499344335
   0.000201735   0.249486120   0.998500102
   0.000181933   0.248923926   0.501531786
   0.001499898   0.750513880   0.999798265
   0.000046043   0.751216679   0.500018401
   0.499981599   0.248783321   0.999953957
   0.499344335   0.249336473   0.500057844
   0.498468214   0.751076074   0.999818067
   0.499942156   0.750663527   0.500655665
   0.999798265   0.998500102   0.249486120
   0.998500102   0.999798265   0.750513880
   0.999818067   0.501531786   0.248923926
   0.999953957   0.500018401   0.751216679
   0.500018401   0.999953957   0.248783321
   0.501531786   0.999818067   0.751076074
   0.500655665   0.500057844   0.249336473
   0.500057844   0.500655665   0.750663527
Mg28Ni4O32
   1.00000000
   8.459926005  -0.000294110   0.000294110
  -0.000294110   8.459926005  -0.000294110
   0.000294110  -0.000294110   8.459926005
  Ni  Mg  O
  4  28  32
Direct configuration=     6
   0.000000000   0.000000000   0.000000000
   0.000000000   0.249049223   0.249049223
   0.249049223   0.000000000   0.750950777
   0.750950777   0.750950777   0.000000000
   0.999784997   0.999784997   0.500000000
   0.000215003   0.500000000   0.999784997
   0.000000000   0.499460047   0.499460047
   0.500000000   0.000215003   0.000215003
   0.499460047   0.000000000   0.500539953
   0.500539953   0.500539953   0.000000000
   0.500000000   0.500000000   0.500000000
   0.000465662   0.247349276   0.750992397
   0.999534338   0.750992397   0.247349276
   0.000000000   0.752068392   0.752068392
   0.500000000   0.248111900   0.248111900
   0.499967392   0.249246305   0.751621946
   0.500032608   0.751621946   0.249246305
   0.500000000   0.750652369   0.750652369
   0.247349276   0.000465662   0.249007603
   0.249246305   0.499967392   0.248378054
   0.248111900   0.500000000   0.751888100
   0.752068392   0.000000000   0.247931608
   0.750992397   0.999534338   0.752650724
   0.750652369   0.500000000   0.249347631
   0.751621946   0.500032608   0.750753695
   0.247931608   0.247931608   0.000000000
   0.249347631   0.249347631   0.500000000
   0.249007603   0.752650724   0.999534338
   0.248378054   0.750753695   0.500032608
   0.752650724   0.249007603   0.000465662
   0.750753695   0.248378054   0.499967392
   0.751888100   0.751888100   0.500000000
   0.250183142   0.248611100   0.248988220
   0.248611100   0.250183142   0.751011780
   0.249247885   0.750752115   0.249247885
   0.248988220   0.749816858   0.751388900
   0.749816858   0.248988220   0.248611100
   0.750752115   0.249247885   0.750752115
   0.751388900   0.751011780   0.250183142
   0.751011780   0.751388900   0.749816858
   0.249118164   0.000363229   0.001302645
   0.248751362   0.000258404   0.498671143
   0.248675533   0.499837195   0.000253572
   0.249174849   0.499211920   0.499765201
   0.750881836   0.001302645   0.000363229
   0.751324467   0.000253572   0.499837195
   0.751248638   0.498671143   0.000258404
   0.750825151   0.499765201   0.499211920
   0.000363229   0.249118164   0.998697355
   0.000258404   0.248751362   0.501328857
   0.001302645   0.750881836   0.999636771
   0.000253572   0.751324467   0.500162805
   0.499837195   0.248675533   0.999746428
   0.499211920   0.249174849   0.500234799
   0.498671143   0.751248638   0.999741596
   0.499765201   0.750825151   0.500788080
   0.999636771   0.998697355   0.249118164
   0.998697355   0.999636771   0.750881836
   0.999741596   0.501328857   0.248751362
   0.999746428   0.500162805   0.751324467
   0.500162805   0.999746428   0.248675533
   0.501328857   0.999741596   0.751248638
   0.500788080   0.500234799   0.249174849
   0.500234799   0.500788080   0.750825151
Mg28Ni4O32
   1.00000000
   8.465491141  -0.000378453   0.000378453
  -0.000378453   8.465491141  -0.000378453
   0.000378453  -0.000378453   8.465491141
  Ni  Mg  O
  4  28  32
Direct configuration=     7
   0.000000000   0.000000000   0.000000000
   0.000000000   0.249028929   0.249028929
   0.249028929   0.000000000   0.750971071
   0.750971071   0.750971071   0.000000000
   0.999677863   0.999677863   0.500000000
   0.000322137   0.500000000   0.999677863
   0.000000000   0.499563604   0.499563604
   0.500000000   0.000322137   0.000322137
   0.499563604   0.000000000   0.500436396
   0.500436396   0.500436396   0.000000000
   0.500000000   0.500000000   0.500000000
   0.000332185   0.247363248   0.750876979
   0.999667815   0.750876979   0.247363248
   0.000000000   0.751979435   0.751979435
   0.500000000   0.247966852   0.247966852
   0.500083979   0.249344388   0.751786130
   0.499916021   0.751786130   0.249344388
   0.500000000   0.750610711   0.750610711
   0.247363248   0.000332185   0.249123021
   0.249344388   0.500083979   0.248213870
   0.247966852   0.500000000   0.752033148
   0.751979435   0.000000000   0.248020565
   0.750876979   0.999667815   0.752636752
   0.750610711   0.500000000   0.249389289
   0.751786130   0.499916021   0.750655612
   0.248020565   0.248020565   0.000000000
   0.249389289   0.249389289   0.500000000
   0.249123021   0.752636752   0.999667815
   0.248213870   0.750655612   0.499916021
   0.752636752   0.249123021   0.000332185
   0.750655612   0.248213870   0.500083979
   0.752033148   0.752033148   0.500000000
   0.249753234   0.248637685   0.248870150
   0.248637685   0.249753234   0.751129850
   0.249197467   0.750802533   0.249197467
   0.248870150   0.750246766   0.751362315
   0.750246766   0.248870150   0.248637685
   0.750802533   0.249197467   0.750802533
   0.751362315   0.751129850   0.249753234
   0.751129850   0.751362315   0.750246766
   0.248875879   0.000461986   0.001040539
   0.248665393   0.000254132   0.498950033
   0.248685945   0.499745860   0.000376996
   0.249042018   0.499214045   0.499660009
   0.751124121   0.001040539   0.000461986
   0.751314055   0.000376996   0.499745860
   0.751334607   0.498950033   0.000254132
   0.750957982   0.499660009   0.499214045
   0.000461986   0.248875879   0.998959461
   0.000254132   0.248665393   0.501049967
   0.001040539   0.751124121   0.999538014
   0.000376996   0.751314055   0.500254140
   0.499745860   0.248685945   0.999623004
   0.499214045   0.249042018   0.500339991
   0.498950033   0.751334607   0.999745868
   0.499660009   0.750957982   0.500785955
   0.999538014   0.998959461   0.248875879
   0.998959461   0.999538014   0.751124121
   0.999745868   0.501049967   0.248665393
   0.999623004   0.500254140   0.751314055
   0.500254140   0.999623004   0.248685945
   0.501049967   0.999745868   0.751334607
   0.500785955   0.500339991   0.249042018
   0.500339991   0.500785955   0.750957982
Mg28Ni4O32
   1.00000000
   8.474998485  -0.000523540   0.000523540
  -0.000523540   8.474998485  -0.000523540
   0.000523540  -0.000523540   8.474998485
  Ni  Mg  O
  4  28  32
Direct configuration=     8
   0.000000000   0.000000000   0.000000000
   0.000000000   0.249121067   0.249121067
   0.249121067   0.000000000   0.750878933
   0.750878933   0.750878933   0.000000000
   0.999698830   0.999698830   0.500000000
   0.000301170   0.500000000   0.999698830
   0.000000000   0.499610671   0.499610671
   0.500000000   0.000301170   0.000301170
   0.499610671   0.000000000   0.500389329
   0.500389329   0.500389329   0.000000000
   0.500000000   0.500000000   0.500000000
   0.000200166   0.247522355   0.750534831
   0.999799834   0.750534831   0.247522355
   0.000000000   0.751739953   0.751739953
   0.500000000   0.248060456   0.248060456
   0.500137482   0.249560803   0.751747504
   0.499862518   0.751747504   0.249560803
   0.500000000   0.750510964   0.750510964
   0.247522355   0.000200166   0.249465169
   0.249560803   0.500137482   0.248252496
   0.248060456   0.500000000   0.751939544
   0.751739953   0.000000000   0.248260047
   0.750534831   0.999799834   0.752477645
   0.750510964   0.500000000   0.249489036
   0.751747504   0.499862518   0.750439197
   0.248260047   0.248260047   0.000000000
   0.249489036   0.249489036   0.500000000
   0.249465169   0.752477645   0.999799834
   0.248252496   0.750439197   0.499862518
   0.752477645   0.249465169   0.000200166
   0.750439197   0.248252496   0.500137482
   0.751939544   0.751939544   0.500000000
   0.249260042   0.248749209   0.248722749
   0.248749209   0.249260042   0.751277251
   0.249113969   0.750886031   0.249113969
   0.248722749   0.750739958   0.751250791
   0.750739958   0.248722749   0.248749209
   0.750886031   0.249113969   0.750886031
   0.751250791   0.751277251   0.249260042
   0.751277251   0.751250791   0.750739958
   0.248707666   0.000509527   0.000672377
   0.248617973   0.000140797   0.499361530
   0.248814304   0.499711132   0.000413702
   0.248880029   0.499377302   0.499624545
   0.751292334   0.000672377   0.000509527
   0.751185696   0.000413702   0.499711132
   0.751382027   0.499361530   0.000140797
   0.751119971   0.499624545   0.499377302
   0.000509527   0.248707666   0.999327623
   0.000140797   0.248617973   0.500638470
   0.000672377   0.751292334   0.999490473
   0.000413702   0.751185696   0.500288868
   0.499711132   0.248814304   0.999586298
   0.499377302   0.248880029   0.500375455
   0.499361530   0.751382027   0.999859203
   0.499624545   0.751119971   0.500622698
   0.999490473   0.999327623   0.248707666
   0.999327623   0.999490473   0.751292334
   0.999859203   0.500638470   0.248617973
   0.999586298   0.500288868   0.751185696
   0.500288868   0.999586298   0.248814304
   0.500638470   0.999859203   0.751382027
   0.500622698   0.500375455   0.248880029
   0.500375455   0.500622698   0.751119971
Mg28Ni4O32
   1.00000000
   8.485921563  -0.000691599   0.000691599
  -0.000691599   8.485921563  -0.000691599
   0.000691599  -0.000691599   8.485921563
  Ni  Mg  O
  4  28  32
Direct configuration=     9
   0.000000000   0.000000000   0.000000000
   0.000000000   0.249323467   0.249323467
   0.249323467   0.000000000   0.750676533
   0.750676533   0.750676533   0.000000000
   0.999928941   0.999928941   0.500000000
   0.000071059   0.500000000   0.999928941
   0.000000000   0.499500540   0.499500540
   0.500000000   0.000071059   0.000071059
   0.499500540   0.000000000   0.500499460
   0.500499460   0.500499460   0.000000000
   0.500000000   0.500000000   0.500000000
   0.000186206   0.247778920   0.750067036
   0.999813794   0.750067036   0.247778920
   0.000000000   0.751448239   0.751448239
   0.500000000   0.248486354   0.248486354
   0.500025824   0.249806807   0.751400354
   0.499974176   0.751400354   0.249806807
   0.500000000   0.750401766   0.750401766
   0.247778920   0.000186206   0.249932964
   0.249806807   0.500025824   0.248599646
   0.248486354   0.500000000   0.751513646
   0.751448239   0.000000000   0.248551761
   0.750067036   0.999813794   0.752221080
   0.750401766   0.500000000   0.249598234
   0.751400354   0.499974176   0.750193193
   0.248551761   0.248551761   0.000000000
   0.249598234   0.249598234   0.500000000
   0.249932964   0.752221080   0.999813794
   0.248599646   0.750193193   0.499974176
   0.752221080   0.249932964   0.000186206
   0.750193193   0.248599646   0.500025824
   0.751513646   0.751513646   0.500000000
   0.249066392   0.248913089   0.248650797
   0.248913089   0.249066392   0.751349203
   0.249030918   0.750969082   0.249030918
   0.248650797   0.750933608   0.751086911
   0.750933608   0.248650797   0.248913089
   0.750969082   0.249030918   0.750969082
   0.751086911   0.751349203   0.249066392
   0.751349203   0.751086911   0.750933608
   0.248811894   0.000420034   0.000430688
   0.248666663   0.999924573   0.499665406
   0.249047782   0.499827175   0.000248605
   0.248806595   0.499689685   0.499753226
   0.751188106   0.000430688   0.000420034
   0.750952218   0.000248605   0.499827175
   0.751333337   0.499665406   0.999924573
   0.751193405   0.499753226   0.499689685
   0.000420034   0.248811894   0.999569312
   0.999924573   0.248666663   0.500334594
   0.000430688   0.751188106   0.999579966
   0.000248605   0.750952218   0.500172825
   0.499827175   0.249047782   0.999751395
   0.499689685   0.248806595   0.500246774
   0.499665406   0.751333337   0.000075427
   0.499753226   0.751193405   0.500310315
   0.999579966   0.999569312   0.248811894
   0.999569312   0.999579966   0.751188106
   0.000075427   0.500334594   0.248666663
   0.999751395   0.500172825   0.750952218
   0.500172825   0.999751395   0.249047782
   0.500334594   0.000075427   0.751333337
   0.500310315   0.500246774   0.248806595
   0.500246774   0.500310315   0.751193405
Mg28Ni4O32
   1.00000000
   8.493975745  -0.000817614   0.000817614
  -0.000817614   8.493975745  -0.000817614
   0.000817614  -0.000817614   8.493975745
  Ni  Mg  O
  4  28  32
Direct configuration=     10
   0.000000000   0.000000000   0.000000000
   0.000000000   0.249526204   0.249526204
   0.249526204   0.000000000   0.750473796
   0.750473796   0.750473796   0.000000000
   0.000243891   0.000243891   0.500000000
   0.999756109   0.500000000   0.000243891
   0.000000000   0.499280047   0.499280047
   0.500000000   0.999756109   0.999756109
   0.499280047   0.000000000   0.500719953
   0.500719953   0.500719953   0.000000000
   0.500000000   0.500000000   0.500000000
   0.000305902   0.248023942   0.749730096
   0.999694098   0.749730096   0.248023942
   0.000000000   0.751245414   0.751245414
   0.500000000   0.249045906   0.249045906
   0.499793446   0.249944904   0.750910802
   0.500206554   0.750910802   0.249944904
   0.500000000   0.750346910   0.750346910
   0.248023942   0.000305902   0.250269904
   0.249944904   0.499793446   0.249089198
   0.249045906   0.500000000   0.750954094
   0.751245414   0.000000000   0.248754586
   0.749730096   0.999694098   0.751976058
   0.750346910   0.500000000   0.249653090
   0.750910802   0.500206554   0.750055096
   0.248754586   0.248754586   0.000000000
   0.249653090   0.249653090   0.500000000
   0.250269904   0.751976058   0.999694098
   0.249089198   0.750055096   0.500206554
   0.751976058   0.250269904   0.000305902
   0.750055096   0.249089198   0.499793446
   0.750954094   0.750954094   0.500000000
   0.249337751   0.249064478   0.248753964
   0.249064478   0.249337751   0.751246036
   0.249017080   0.750982920   0.249017080
   0.248753964   0.750662249   0.750935522
   0.750662249   0.248753964   0.249064478
   0.750982920   0.249017080   0.750982920
   0.750935522   0.751246036   0.249337751
   0.751246036   0.750935522   0.750662249
   0.249185067   0.000216309   0.000461734
   0.248816754   0.999724146   0.499686715
   0.249291303   0.500069484   0.999934599
   0.248918094   0.499982532   0.500001980
   0.750814933   0.000461734   0.000216309
   0.750708697   0.999934599   0.500069484
   0.751183246   0.499686715   0.999724146
   0.751081906   0.500001980   0.499982532
   0.000216309   0.249185067   0.999538266
   0.999724146   0.248816754   0.500313285
   0.000461734   0.750814933   0.999783691
   0.999934599   0.750708697   0.499930516
   0.500069484   0.249291303   0.000065401
   0.499982532   0.248918094   0.499998020
   0.499686715   0.751183246   0.000275854
   0.500001980   0.751081906   0.500017468
   0.999783691   0.999538266   0.249185067
   0.999538266   0.999783691   0.750814933
   0.000275854   0.500313285   0.248816754
   0.000065401   0.499930516   0.750708697
   0.499930516   0.000065401   0.249291303
   0.500313285   0.000275854   0.751183246
   0.500017468   0.499998020   0.248918094
   0.499998020   0.500017468   0.751081906
Mg28Ni4O32
   1.00000000
   8.496826394  -0.000865205   0.000865205
  -0.000865205   8.496826394  -0.000865205
   0.000865205  -0.000865205   8.496826394
  Ni  Mg  O
  4  28  32
Direct configuration=     11
   0.000000000   0.000000000   0.000000000
   0.000000000   0.249607335   0.249607335
   0.249607335   0.000000000   0.750392665
   0.750392665   0.750392665   0.000000000