H107LiMg53
   1.00000000
   13.503017171   0.000003072   0.000000007
   0.000003072   13.503017156  -0.000000002
   0.000000005  -0.000000002   9.029981239
  Li  Mg  H
  1  53  107
Direct configuration=     1
   0.999999927   0.000000256   0.000000048
   0.999998802   0.000001030   0.332896358
   0.000000715   0.000000026   0.667103475
   0.000000561   0.333304147   0.000000193
   0.999998397   0.333321252   0.333326042
   0.999998790   0.333321642   0.666673772
   0.999998459   0.666695950   0.999998193
   0.000001690   0.666679621   0.333325979
   0.000000146   0.666678389   0.666675865
   0.333299435   0.999994857   0.999992665
   0.333308974   0.000021818   0.333326205
   0.333316821   0.999993118   0.666681241
   0.333329095   0.333328012   0.999998103
   0.333330118   0.333329414   0.333328819
   0.333328923   0.333327839   0.666673080
   0.333318980   0.666665814   0.999964833
   0.333149402   0.666485406   0.333335012
   0.333324477   0.666660482   0.666700170
   0.666686623   0.999990199   0.000003573
   0.666704183   0.000027046   0.333326040
   0.666669056   0.999991884   0.666670315
   0.666673449   0.333327369   0.000000509
   0.666668979   0.333330977   0.333335263
   0.666668108   0.333332708   0.666664227
   0.666665184   0.666666030   0.999992665
   0.666694120   0.666658320   0.333328829
   0.666665394   0.666666233   0.666678488
   0.166536659   0.166531723   0.166478237
   0.166659039   0.166654026   0.500000717
   0.166534228   0.166534566   0.833521021
   0.166663103   0.500001396   0.166673784
   0.166665208   0.500001222   0.499990254
   0.166663483   0.500001765   0.833335972
   0.166523289   0.833479882   0.166612438
   0.166652735   0.833350536   0.500008067
   0.166529859   0.833479072   0.833379358
   0.500000417   0.166662247   0.166664406
   0.500000280   0.166664398   0.499999656
   0.500000427   0.166661467   0.833335943
   0.500006006   0.499997312   0.166659568
   0.500005996   0.499997332   0.500008133
   0.500004897   0.500004092   0.833332308
   0.500159927   0.833498036   0.166239453
   0.500160056   0.833495997   0.500424495
   0.500006739   0.833345023   0.833335982
   0.833475488   0.166526727   0.166621171
   0.833345783   0.166656440   0.499999556
   0.833474412   0.166525638   0.833379295
   0.833335485   0.500002208   0.166663308
   0.833333358   0.500002342   0.500000741
   0.833338393   0.499999774   0.833335950
   0.833466310   0.833466012   0.166479425
   0.833343746   0.833343582   0.499999681
   0.833465370   0.833466057   0.833520965
   0.101608076   0.101609121   0.999999691
   0.101464980   0.101466409   0.333405512
   0.101465066   0.101466169   0.666594800
   0.101440778   0.434773370   0.000000532
   0.101437249   0.434770419   0.333332341
   0.101438923   0.434772097   0.666667128
   0.101456732   0.768072599   0.999999765
   0.101439357   0.768085246   0.333356192
   0.101437325   0.768082711   0.666644162
   0.434773915   0.101441907   0.000001052
   0.434774632   0.101435631   0.333332355
   0.434772648   0.101440050   0.666666598
   0.434771419   0.434771979   0.999999820
   0.434773553   0.434773855   0.333332887
   0.434771114   0.434771668   0.666667293
   0.434768040   0.768100957   0.000010919
   0.434768251   0.768101599   0.666656512
   0.768072941   0.101456518   0.999999172
   0.768084053   0.101438120   0.333356084
   0.768083117   0.101437192   0.666644699
   0.768105532   0.434771517   0.999999654
   0.768106508   0.434771723   0.333332563
   0.768106218   0.434771799   0.666667783
   0.768040855   0.768040276   0.000001089
   0.768106146   0.768111960   0.333325809
   0.768110495   0.768109945   0.666673071
   0.231960595   0.231961284   0.999999841
   0.231890846   0.231891989   0.333325887
   0.231890935   0.231891619   0.666674285
   0.231894920   0.565227824   0.999999501
   0.231897099   0.565230403   0.333332550
   0.231894238   0.565227555   0.666667927
   0.231923190   0.898540738   0.999997496
   0.231942036   0.898548235   0.333356641
   0.231913205   0.898560058   0.666646288
   0.565227887   0.231895172   0.000000595
   0.565227558   0.231895304   0.333332562
   0.565227604   0.231894488   0.666666843
   0.565225411   0.565224443   0.999997613
   0.565213401   0.565253778   0.333332892
   0.565225725   0.565224755   0.666669488
   0.565235577   0.898568219   0.000006801
   0.565026734   0.898359863   0.333332304
   0.565236920   0.898570085   0.666660818
   0.898542790   0.231926356   0.000000082
   0.898561722   0.231915808   0.333356100
   0.898562090   0.231916171   0.666643814
   0.898560230   0.565226962   0.999999838
   0.898562443   0.565228149   0.333332343
   0.898562077   0.565228231   0.666667821
   0.898391773   0.898391381   0.000000452
   0.898535406   0.898534310   0.333405506
   0.898534553   0.898534332   0.666593918
   0.065217847   0.268136545   0.166692258
   0.065227278   0.268098221   0.499999946
   0.065217606   0.268136786   0.833307791
   0.065225718   0.601440241   0.166665952
   0.065225800   0.601439699   0.500002177
   0.065227506   0.601439481   0.833331859
   0.065357668   0.934641616   0.166966675
   0.065213951   0.934785433   0.499999465
   0.065358046   0.934641158   0.833033777
   0.398558855   0.268103476   0.166665558
   0.398561518   0.268105247   0.500000450
   0.398558709   0.268103829   0.833333992
   0.398582742   0.601496593   0.166737774
   0.398583234   0.601496133   0.499928851
   0.398559429   0.601437456   0.833333413
   0.398572814   0.934707664   0.166746170
   0.398573101   0.934707670   0.499922015
   0.398552496   0.934779253   0.833331869
   0.731898744   0.268101619   0.166666164
   0.731894501   0.268105865   0.499999704
   0.731898606   0.268101567   0.833334134
   0.731891117   0.601445379   0.166672453
   0.731889316   0.601442743   0.499993541
   0.731898474   0.601440765   0.833333988
   0.731858754   0.934779693   0.166698084
   0.731897077   0.934770192   0.499994242
   0.731869659   0.934784488   0.833307778
   0.268141082   0.065212030   0.166698655
   0.268102910   0.065221598   0.499993520
   0.268136571   0.065219590   0.833307750
   0.268103974   0.398556155   0.166663824
   0.268105753   0.398558821   0.500002177
   0.268103224   0.398557935   0.833333993
   0.268158388   0.731920319   0.166736578
   0.268162694   0.731916525   0.499928918
   0.268099153   0.731897764   0.833334146
   0.601436962   0.065224154   0.166673892
   0.601436417   0.065224242   0.499994245
   0.601441836   0.065235104   0.833331862
   0.601439655   0.398559665   0.166667065
   0.601439141   0.398560180   0.499999515
   0.601439013   0.398560256   0.833333421
   0.601377206   0.731908880   0.166743982
   0.601374640   0.731907108   0.499921988
   0.601448821   0.731888762   0.833333995
   0.934641789   0.065358563   0.166967075
   0.934785508   0.065214865   0.499999688
   0.934641642   0.065358479   0.833033115
   0.934771135   0.398560513   0.166668197
   0.934771062   0.398561042   0.499999946
   0.934771378   0.398560274   0.833331855
   0.934782400   0.731863075   0.166691753
   0.934772955   0.731901333   0.500000442
   0.934782739   0.731862899   0.833307792
H107LiMg53
   1.00000000
   13.503223186   0.000039054   0.000000079
   0.000039054   13.503223023  -0.000000032
   0.000000053  -0.000000021   9.029763073
  Li  Mg  H
  1  53  107
Direct configuration=     2
   0.999998873   0.000003335   0.000000202
   0.999986523   0.000013884   0.328286620
   0.000008358   0.000000728   0.671712163
   0.000009966   0.333001773   0.000002008
   0.999978297   0.333195281   0.333266413
   0.999984495   0.333201450   0.666731669
   0.999977178   0.666999730   0.999977171
   0.000020324   0.666815219   0.333265652
   0.000001608   0.666799196   0.666757569
   0.332948662   0.999934257   0.999940322
   0.333047059   0.000260252   0.333268417
   0.333146993   0.999909217   0.666792883
   0.333298586   0.333284219   0.999976132
   0.333289241   0.333278463   0.333285096
   0.333273700   0.333259311   0.666738786
   0.333153980   0.666665017   0.999601775
   0.331076765   0.664447998   0.333346904
   0.333224630   0.666596149   0.667051291
   0.666904238   0.999896326   0.000048924
   0.667052458   0.000269363   0.333266146
   0.666703882   0.999920584   0.666683776
   0.666756671   0.333253382   0.000005027
   0.666699055   0.333302811   0.333349385
   0.666687475   0.333322531   0.666645534
   0.666625864   0.666646458   0.999939775
   0.667002762   0.666570900   0.333285193
   0.666651232   0.666671756   0.666774658
   0.165122762   0.165064272   0.164502452
   0.166593517   0.166534168   0.500007859
   0.165092978   0.165099339   0.835489591
   0.166612729   0.500010634   0.166733618
   0.166637924   0.500006622   0.499897692
   0.166621883   0.500019728   0.833368813
   0.165030649   0.835015577   0.166073933
   0.166491383   0.833555523   0.500088040
   0.165094473   0.835010231   0.833836719
   0.500004711   0.166611795   0.166635350
   0.500000948   0.166637550   0.499996237
   0.500005462   0.166604959   0.833368515
   0.500068576   0.499978884   0.166585942
   0.500068461   0.499979127   0.500088857
   0.500059606   0.500045889   0.833325293
   0.501965225   0.835361146   0.161526499
   0.501969041   0.835336691   0.505104029
   0.500063747   0.833461439   0.833368857
   0.834968648   0.165062447   0.166165837
   0.833504307   0.166526850   0.499998077
   0.834953247   0.165047064   0.833836311
   0.833363541   0.500024879   0.166623280
   0.833338102   0.500028586   0.500008137
   0.833399355   0.499995162   0.833368560
   0.834914767   0.834907711   0.164515252
   0.833441644   0.833436068   0.499996348
   0.834906078   0.834908656   0.835488852
   0.103465611   0.103477639   0.999996929
   0.101803371   0.101819725   0.334180251
   0.101804274   0.101817123   0.665822794
   0.101522416   0.434838572   0.000008089
   0.101489185   0.434813488   0.333325797
   0.101503368   0.434827714   0.666666114
   0.101723963   0.767776248   0.999998488
   0.101521401   0.767915165   0.333619972
   0.101498304   0.767884402   0.666382856
   0.434841190   0.101529093   0.000016105
   0.434860372   0.101463972   0.333325997
   0.434830397   0.101510022   0.666657928
   0.434818277   0.434828475   0.999999127
   0.434844165   0.434849573   0.333331176
   0.434814471   0.434824605   0.666669680
   0.434785461   0.768114902   0.000088368
   0.434787518   0.768123175   0.666583220
   0.767777438   0.101714888   0.999991900
   0.767907971   0.101511763   0.333618696
   0.767886289   0.101490253   0.666388803
   0.768166504   0.434824417   0.999996526
   0.768178315   0.434826267   0.333328483
   0.768175131   0.434827092   0.666674995
   0.767381658   0.767377711   0.000016654
   0.768196665   0.768268626   0.333190883
   0.768241842   0.768238211   0.666792228
   0.232629794   0.232637339   0.999998549
   0.231769280   0.231781563   0.333191710
   0.231769379   0.231776825   0.666809838
   0.231841089   0.565170196   0.000000192
   0.231801565   0.565136965   0.333328191
   0.231832475   0.565167710   0.666671168
   0.232173530   0.898249104   0.999969638
   0.232417924   0.898324800   0.333625119
   0.232067069   0.898473656   0.666409818
   0.565169263   0.231842462   0.000008336
   0.565165959   0.231843076   0.333328472
   0.565166583   0.231833853   0.666663183
   0.565143593   0.565132407   0.999971150
   0.564992619   0.565489849   0.333331252
   0.565147474   0.565136296   0.666697517
   0.565309378   0.898626096   0.999972854
   0.562745608   0.896069173   0.333325500
   0.565321032   0.898645212   0.666700579
   0.898274023   0.232211330   0.000000836
   0.898492724   0.232096854   0.333618947
   0.898498408   0.232102447   0.666380163
   0.898489884   0.565166345   0.999998542
   0.898513549   0.565177157   0.333325837
   0.898508828   0.565177162   0.666675646
   0.896533566   0.896528600   0.000006795
   0.898201660   0.898188926   0.334180313
   0.898191987   0.898189311   0.665811634
   0.065056018   0.268533068   0.166967777
   0.065162145   0.268079571   0.499999618
   0.065052299   0.268537130   0.833032566
   0.065148207   0.601517813   0.166653318
   0.065146362   0.601512904   0.500024432
   0.065167969   0.601508783   0.833322114
   0.066659085   0.933333016   0.170256506
   0.064972459   0.935020595   0.499993126
   0.066664139   0.933326150   0.829749705
   0.398476075   0.268141205   0.166652836
   0.398504661   0.268162885   0.500005560
   0.398474542   0.268145175   0.833341612
   0.398778504   0.602207653   0.167530978
   0.398781383   0.602205116   0.499130845
   0.398480423   0.601479978   0.833338808
   0.398622357   0.934043414   0.167616826
   0.398624249   0.934046435   0.499061730
   0.398398208   0.934912925   0.833322197
   0.731928509   0.268075490   0.166659247
   0.731835314   0.268168711   0.499996064
   0.731927088   0.268075772   0.833344741
   0.731787695   0.601579879   0.166733369
   0.731765683   0.601551672   0.499924901
   0.731883401   0.601517855   0.833341566
   0.731396318   0.934909335   0.167051111
   0.731849633   0.934802415   0.499917648
   0.731535574   0.934972951   0.833032290
   0.268593331   0.064980117   0.167042070
   0.268141937   0.065087925   0.499924609
   0.268532843   0.065078253   0.833032057
   0.268147017   0.398445579   0.166633888
   0.268168768   0.398474222   0.500024441
   0.268138111   0.398465240   0.833341594
   0.268772516   0.732206548   0.167520728
   0.268865750   0.732118724   0.499130932
   0.268043380   0.731917347   0.833344861
   0.601473661   0.065114181   0.166760081
   0.601468735   0.065112400   0.499917799
   0.601538145   0.065254066   0.833322203
   0.601510162   0.398482076   0.166667538
   0.601507178   0.398485056   0.499993657
   0.601501478   0.398489610   0.833338831
   0.600745978   0.731990883   0.167596814
   0.600718536   0.731969226   0.499061193
   0.601615550   0.731769083   0.833341632
   0.933333280   0.066670552   0.170261247
   0.935020299   0.064983821   0.499995958
   0.933332434   0.066669717   0.829741178
   0.934814952   0.398490979   0.166678280
   0.934816932   0.398495731   0.499999626
   0.934819047   0.398487279   0.833322085
   0.934946962   0.731461398   0.166961837
   0.934840598   0.731914110   0.500005490
   0.934950685   0.731459552   0.833032595
H107LiMg53
   1.00000000
   13.503245110   0.000041694   0.000000080
   0.000041694   13.503244952  -0.000000037
   0.000000053  -0.000000025   9.029749262
  Li  Mg  H
  1  53  107
Direct configuration=     3
   0.999998605   0.000003653   0.999999875
   0.999987146   0.000015456   0.328382747
   0.000008343   0.000001147   0.671616722
   0.000012826   0.333009988   0.000001822
   0.999975862   0.333196625   0.333280762
   0.999983227   0.333203947   0.666717508
   0.999973148   0.666991925   0.999975864
   0.000020792   0.666814472   0.333279980
   0.000001677   0.666796991   0.666744532
   0.332959057   0.999928909   0.999964921
   0.333045875   0.000261513   0.333283060
   0.333151666   0.999899740   0.666754017
   0.333310135   0.333294292   0.999974838
   0.333279621   0.333266435   0.333285929
   0.333262719   0.333246844   0.666739243
   0.333141064   0.666678101   0.999618154
   0.331001051   0.664386280   0.333337044
   0.333217578   0.666603216   0.667044378
   0.666911475   0.999909163   0.000054014
   0.667011638   0.000232249   0.333280447
   0.666716976   0.999937450   0.666664323
   0.666770370   0.333240157   0.000004257
   0.666707733   0.333296287   0.333339388
   0.666694993   0.333315483   0.666656303
   0.666606670   0.666637559   0.999964080
   0.667016904   0.666578186   0.333286076
   0.666654338   0.666685102   0.666749421
   0.165122162   0.165063033   0.164578510
   0.166613098   0.166553168   0.500007318
   0.165091293   0.165099593   0.835414216
   0.166603635   0.500004025   0.166719758
   0.166629137   0.499998179   0.499910740
   0.166618371   0.500018761   0.833369575
   0.165095172   0.834960488   0.166117800
   0.166484491   0.833571192   0.500081258
   0.165146019   0.834958187   0.833799909
   0.500004736   0.166612277   0.166634380
   0.499998955   0.166638311   0.499996439
   0.500005889   0.166607442   0.833369291
   0.500066752   0.499989358   0.166592600
   0.500066657   0.499989589   0.500082101
   0.500061243   0.500043760   0.833325397
   0.502028226   0.835426883   0.161454855
   0.502034402   0.835402349   0.505175902
   0.500047563   0.833447732   0.833369420
   0.834917394   0.165118450   0.166199607
   0.833524011   0.166511832   0.500000751
   0.834899517   0.165100606   0.833799780
   0.833364726   0.500023977   0.166623027
   0.833338991   0.500029687   0.500007614
   0.833402003   0.499993245   0.833369344
   0.834917694   0.834907729   0.164590275
   0.833424271   0.833415617   0.499996466
   0.834911254   0.834908964   0.835413400
   0.103436339   0.103448141   0.999997583
   0.101796860   0.101812622   0.334174169
   0.101797558   0.101810231   0.665828212
   0.101520359   0.434835500   0.000009601
   0.101493915   0.434818325   0.333326474
   0.101503766   0.434828229   0.666663942
   0.101734199   0.767775406   0.999999837
   0.101534176   0.767903268   0.333634489
   0.101511897   0.767871952   0.666366988
   0.434834866   0.101521011   0.000019495
   0.434863546   0.101463903   0.333326720
   0.434827627   0.101504358   0.666653810
   0.434817787   0.434831434   0.000000461
   0.434843563   0.434850948   0.333330734
   0.434813128   0.434826710   0.666668796
   0.434792137   0.768119404   0.000051007
   0.434793849   0.768128307   0.666620345
   0.767774281   0.101719206   0.999993556
   0.767901353   0.101527745   0.333633126
   0.767871499   0.101498067   0.666372672
   0.768167536   0.434827945   0.999997157
   0.768179690   0.434829525   0.333328891
   0.768176723   0.434830141   0.666673953
   0.767363836   0.767362904   0.000020521
   0.768216974   0.768292077   0.333140820
   0.768256363   0.768255681   0.666838849
   0.232641830   0.232648829   0.999998964
   0.231750429   0.231761324   0.333141547
   0.231749528   0.231756347   0.666859527
   0.231842198   0.565168937   0.000006292
   0.231728373   0.565062762   0.333328516
   0.231832976   0.565166940   0.666664635
   0.232173841   0.898241560   0.999968864
   0.232439646   0.898305143   0.333639143
   0.232079122   0.898462622   0.666395930
   0.565166362   0.231841918   0.000009665
   0.565163504   0.231841796   0.333328879
   0.565164161   0.231832759   0.666661450
   0.565143288   0.565132309   0.999970493
   0.564984346   0.565501112   0.333330816
   0.565148026   0.565137091   0.666698597
   0.565364847   0.898680456   0.999838826
   0.562683477   0.896006669   0.333325925
   0.565372630   0.898696746   0.666833046
   0.898267162   0.232212001   0.000000661
   0.898481539   0.232108327   0.333633427
   0.898488151   0.232114821   0.666365850
   0.898492233   0.565170308   0.999999045
   0.898513664   0.565178477   0.333326512
   0.898508700   0.565177524   0.666674468
   0.896563570   0.896558412   0.000008206
   0.898208856   0.898196205   0.334174361
   0.898199274   0.898196632   0.665816329
   0.065057677   0.268534789   0.166970425
   0.065159218   0.268080269   0.499999846
   0.065053210   0.268540020   0.833029683
   0.065149309   0.601517094   0.166652028
   0.065144866   0.601513385   0.500023486
   0.065167884   0.601507852   0.833324351
   0.066615182   0.933377583   0.170324489
   0.064943632   0.935049806   0.499992615
   0.066620803   0.933368962   0.829683042
   0.398481180   0.268141566   0.166655982
   0.398506273   0.268163611   0.500005821
   0.398479864   0.268145346   0.833338204
   0.398802056   0.602232154   0.167558372
   0.398802939   0.602231636   0.499102440
   0.398481817   0.601475600   0.833340031
   0.398610078   0.934019952   0.167631074
   0.398610820   0.934025646   0.499045678
   0.398400411   0.934914442   0.833324475
   0.731963357   0.268040396   0.166661144
   0.731835870   0.268167906   0.499995760
   0.731962127   0.268041522   0.833343141
   0.731780978   0.601579839   0.166735827
   0.731758597   0.601555176   0.499925846
   0.731884225   0.601511553   0.833338181
   0.731380734   0.934901500   0.167066667
   0.731835226   0.934799292   0.499905191
   0.731530172   0.934972485   0.833029195
   0.268600825   0.064975529   0.167043304
   0.268148644   0.065078809   0.499925545
   0.268534334   0.065081282   0.833029158
   0.268147454   0.398451945   0.166638257
   0.268169563   0.398477101   0.500023511
   0.268138325   0.398470413   0.833338177
   0.268764382   0.732262186   0.167551596
   0.268890699   0.732141487   0.499102178
   0.268005306   0.731952432   0.833343196
   0.601466957   0.065101324   0.166770267
   0.601463238   0.065096900   0.499905311
   0.601538627   0.065251394   0.833324480
   0.601509763   0.398482769   0.166667064
   0.601508775   0.398483751   0.499993006
   0.601500239   0.398490540   0.833339952
   0.600717764   0.731977653   0.167616184
   0.600693617   0.731955579   0.499044978
   0.601611791   0.731770197   0.833338212
   0.933375629   0.066627822   0.170328584
   0.935048574   0.064955305   0.499995658
   0.933375705   0.066627158   0.829673799
   0.934814061   0.398491709   0.166675805
   0.934818654   0.398495278   0.499999856
   0.934819353   0.398487214   0.833324330
   0.934945281   0.731458669   0.166964474
   0.934843463   0.731912409   0.500005747
   0.934948763   0.731457088   0.833029757
H107LiMg53
   1.00000000
   13.503697892   0.000099478   0.000000121
   0.000099478   13.503697844  -0.000000115
   0.000000081  -0.000000077   9.029447230
  Li  Mg  H
  1  53  107
Direct configuration=     4
   0.999993677   0.000010414   0.999994181
   0.999996068   0.000046625   0.329247135
   0.000010396   0.000009306   0.670763788
   0.000063945   0.333093860   0.999999555
   0.999932695   0.333204543   0.333519582
   0.999957249   0.333228683   0.666480997
   0.999899318   0.666915669   0.999949600
   0.000033211   0.666824133   0.333518318
   0.000004284   0.666777646   0.666532279
   0.333074840   0.999813669   0.000391795
   0.332976020   0.000329178   0.333527252
   0.333207841   0.999707354   0.666089894
   0.333515347   0.333471010   0.999948552
   0.333095981   0.333037500   0.333285983
   0.333051769   0.333007186   0.666765429
   0.332872482   0.666926470   0.999845006
   0.329196116   0.662848889   0.333162899
   0.333071662   0.666726859   0.666982380
   0.667111444   0.000146203   0.000147141
   0.666326174   0.999596525   0.333518486
   0.666978327   0.000249709   0.666331864
   0.667042209   0.332979996   0.999992252
   0.666874115   0.333169383   0.333165593
   0.666838733   0.333183383   0.666842108
   0.666245083   0.666471934   0.000385433
   0.667332971   0.666694228   0.333287110
   0.666704955   0.666930719   0.666325972
   0.164829287   0.164745129   0.165508711
   0.166953411   0.166869153   0.499999617
   0.164773083   0.164815208   0.834494161
   0.166412213   0.499869094   0.166462702
   0.166448046   0.499830750   0.500146747
   0.166546032   0.500003877   0.833389851
   0.165925521   0.834314846   0.166803147
   0.166326039   0.833902430   0.499974479
   0.165750770   0.834361829   0.833226148
   0.500005290   0.166608755   0.166609625
   0.499964051   0.166644926   0.500000981
   0.500014191   0.166635741   0.833389607
   0.500048936   0.500177861   0.166703660
   0.500049275   0.500177865   0.499976135
   0.500100494   0.500013186   0.833320472
   0.503532884   0.836992001   0.159203292
   0.503579742   0.836960509   0.507422806
   0.499762950   0.833219366   0.833386033
   0.834329415   0.165799038   0.166724732
   0.833916666   0.166210744   0.500043485
   0.834263838   0.165733540   0.833230643
   0.833391486   0.500015447   0.166610007
   0.833355327   0.500056294   0.500000241
   0.833461957   0.499960594   0.833389861
   0.835259716   0.835197745   0.165503622
   0.833130815   0.833067341   0.499999505
   0.835289501   0.835204915   0.834491780
   0.103278137   0.103287984   0.000010078
   0.101748959   0.101755364   0.334246378
   0.101744554   0.101756303   0.665743755
   0.101498955   0.434793330   0.000034411
   0.101572167   0.434896999   0.333338843
   0.101520946   0.434846028   0.666627002
   0.101974687   0.767704823   0.000029396
   0.101787889   0.767648644   0.333959926
   0.101776611   0.767602820   0.666012801
   0.434736650   0.101391698   0.000087769
   0.434936996   0.101464642   0.333339962
   0.434788824   0.101412989   0.666572250
   0.434821877   0.434903276   0.000029127
   0.434839879   0.434888074   0.333322708
   0.434791730   0.434873005   0.666648298
   0.434929182   0.768218602   0.999391395
   0.434926353   0.768241029   0.667279023
   0.767669354   0.101854475   0.000024263
   0.767724593   0.101817468   0.333957141
   0.767567989   0.101660719   0.666017202
   0.768196329   0.434898071   0.000008915
   0.768217523   0.434898162   0.333332807
   0.768217958   0.434893539   0.666658222
   0.766930369   0.766985886   0.000097907
   0.768594279   0.768741582   0.332207623
   0.768537925   0.768592132   0.667702446
   0.232971440   0.232969571   0.000007062
   0.231392036   0.231377019   0.332206961
   0.231372008   0.231368421   0.667784927
   0.231855251   0.565140523   0.000123267
   0.230378928   0.563696609   0.333330901
   0.231832769   0.565145618   0.666543093
   0.232225019   0.898047214   0.999951002
   0.232931526   0.897901197   0.333956246
   0.232331571   0.898241256   0.666085493
   0.565106339   0.231822692   0.000036762
   0.565110372   0.231810030   0.333332773
   0.565110823   0.231801240   0.666630548
   0.565116577   0.565107933   0.999954985
   0.564795462   0.565757645   0.333322938
   0.565146931   0.565138924   0.666721782
   0.566380709   0.899673978   0.997354983
   0.561130541   0.894445164   0.333333581
   0.566324323   0.899645772   0.669289903
   0.898089710   0.232275789   0.999996662
   0.898265006   0.232359116   0.333958174
   0.898284984   0.232378472   0.666044811
   0.898519032   0.565227836   0.000008862
   0.898505277   0.565194131   0.333338828
   0.898496555   0.565174825   0.666652374
   0.896733829   0.896725412   0.000036546
   0.898272143   0.898258917   0.334248745
   0.898261139   0.898259397   0.665716111
   0.065055009   0.268643088   0.167076255
   0.065097807   0.268085773   0.500003827
   0.065036855   0.268671017   0.832919755
   0.065152925   0.601520878   0.166624964
   0.065102713   0.601533033   0.500013957
   0.065154831   0.601503880   0.833360907
   0.066136244   0.933868444   0.172210403
   0.064392869   0.935607296   0.499981524
   0.066145486   0.933832107   0.827823324
   0.398559706   0.268157488   0.166712582
   0.398517202   0.268185774   0.500012171
   0.398562305   0.268158762   0.833275190
   0.399255981   0.602836579   0.168212102
   0.399232492   0.602861049   0.498424820
   0.398475093   0.601418251   0.833367475
   0.398394433   0.933457529   0.168051820
   0.398380048   0.933510350   0.498596865
   0.398406192   0.934971387   0.833361697
   0.732579183   0.267420851   0.166694330
   0.731841611   0.268158372   0.499991060
   0.732581444   0.267437084   0.833314517
   0.731638380   0.601600437   0.166797918
   0.731609625   0.601644491   0.499926773
   0.731890056   0.601413184   0.833275570
   0.730999602   0.934774814   0.167428998
   0.731559490   0.934733527   0.499656594
   0.731380683   0.935002208   0.832915693
   0.268822596   0.064847310   0.167139484
   0.268272280   0.064893475   0.499926252
   0.268642218   0.065103466   0.832918668
   0.268167771   0.398546980   0.166711060
   0.268195948   0.398504661   0.500014285
   0.268150726   0.398548588   0.833275010
   0.268764089   0.733306830   0.168271241
   0.269481361   0.732602663   0.498419515
   0.267326260   0.732567257   0.833313426
   0.601341600   0.064838336   0.166981558
   0.601353883   0.064787262   0.499656135
   0.601566443   0.065219989   0.833361775
   0.601527590   0.398469872   0.166654952
   0.601550534   0.398446892   0.499979349
   0.601504008   0.398478826   0.833365646
   0.600072826   0.731749367   0.168127295
   0.600112613   0.731719929   0.498592368
   0.601577009   0.731760686   0.833274894
   0.933831079   0.066166210   0.172200971
   0.935591134   0.064409187   0.499991063
   0.933847020   0.066168863   0.827799374
   0.934806188   0.398491273   0.166635088
   0.934856804   0.398479251   0.500003860
   0.934834692   0.398472203   0.833361029
   0.934947671   0.731330596   0.167068266
   0.934903887   0.731887003   0.500012102
   0.934947649   0.731333762   0.832920637
H107LiMg53
   1.00000000
   13.503765504   0.000109153   0.000000147
   0.000109153   13.503765500  -0.000000105
   0.000000099  -0.000000070   9.029403194
  Li  Mg  H
  1  53  107
Direct configuration=     5
   0.999993340   0.000011620   0.999993798
   0.999996923   0.000050070   0.329288568
   0.000011747   0.000010583   0.670722492
   0.000065779   0.333090199   0.000000139
   0.999933635   0.333212837   0.333531530
   0.999953862   0.333232577   0.666468448
   0.999895849   0.666919882   0.999948356
   0.000035147   0.666823352   0.333530283
   0.000005945   0.666774191   0.666521621
   0.333076040   0.999793189   0.000423514
   0.332969158   0.000336318   0.333539310
   0.333216474   0.999681651   0.666046576
   0.333537123   0.333490659   0.999947281
   0.333075454   0.333012598   0.333277793
   0.333028511   0.332981764   0.666774885
   0.332841189   0.666965690   0.999863644
   0.328953440   0.662642044   0.333148437
   0.333057842   0.666748794   0.666974443
   0.667167424   0.000196908   0.000148139
   0.666247982   0.999525739   0.333530298
   0.667026264   0.000304907   0.666318798
   0.667079297   0.332945669   0.999992446
   0.666895090   0.333152531   0.333154111
   0.666857800   0.333167083   0.666853353
   0.666201758   0.666455245   0.000416524
   0.667367640   0.666706792   0.333279151
   0.666706158   0.666958585   0.666302684
   0.164772485   0.164681612   0.165504336
   0.166984593   0.166893369   0.499999742