Mg28Ni4O32
   1.00000000
   8.440347307   0.000001816  -0.000001816
   0.000001816   8.440347307  -0.000001816
  -0.000001816  -0.000001816   8.440347307
  Ni  Mg  O
  4  28  32
Direct configuration=     1
   0.000072525   0.000072525   0.000104261
   0.000072525   0.249895739   0.249927475
   0.249895739   0.000072525   0.249927475
   0.749911107   0.749911107   0.500088893
   0.999945764   0.999945764   0.499846325
   0.999974115   0.499942422   0.000057989
   0.999893613   0.500040007   0.499963607
   0.499942422   0.999974115   0.000057989
   0.500040007   0.999893613   0.499963607
   0.500028360   0.500028360   0.999972989
   0.500109481   0.500109481   0.500012199
   0.999974115   0.249942011   0.750057578
   0.999945764   0.750153675   0.250054236
   0.999893613   0.750036393   0.749959993
   0.499942422   0.249942011   0.250025885
   0.500028360   0.250027011   0.749971640
   0.500040007   0.750036393   0.250106387
   0.500109481   0.749987801   0.749890519
   0.249942011   0.999974115   0.750057578
   0.249942011   0.499942422   0.250025885
   0.250027011   0.500028360   0.749971640
   0.750153675   0.999945764   0.250054236
   0.750036393   0.999893613   0.749959993
   0.750036393   0.500040007   0.250106387
   0.749987801   0.500109481   0.749890519
   0.249850285   0.249850285   0.000149715
   0.249944336   0.249944336   0.499841909
   0.249944336   0.750158091   0.000055664
   0.249990841   0.750068914   0.499931086
   0.750158091   0.249944336   0.000055664
   0.750068914   0.249990841   0.499931086
   0.750068914   0.750068914   0.000009159
   0.250029904   0.250029904   0.249936842
   0.249911974   0.249911974   0.750001856
   0.249915393   0.749870917   0.250000227
   0.249974871   0.750078249   0.749970177
   0.749870917   0.249915393   0.250000227
   0.750078249   0.249974871   0.749970177
   0.750043576   0.750043576   0.249708220
   0.750011026   0.750011026   0.750246964
   0.250029904   0.000063158   0.999970096
   0.249915393   0.999999773   0.500129083
   0.249911974   0.499998144   0.000088026
   0.249974871   0.500029823   0.499921751
   0.749870917   0.999999773   0.000084607
   0.750043576   0.000291780   0.499956424
   0.750078249   0.500029823   0.000025129
   0.750011026   0.499753036   0.499988974
   0.000063158   0.250029904   0.999970096
   0.999999773   0.249915393   0.500129083
   0.999999773   0.749870917   0.000084607
   0.000291780   0.750043576   0.499956424
   0.499998144   0.249911974   0.000088026
   0.500029823   0.249974871   0.499921751
   0.500029823   0.750078249   0.000025129
   0.499753036   0.750011026   0.499988974
   0.000037835   0.000037835   0.249962165
   0.000092122   0.000092122   0.749896844
   0.000092122   0.500103156   0.249907878
   0.000016844   0.499926902   0.750073098
   0.500103156   0.000092122   0.249907878
   0.499926902   0.000016844   0.750073098
   0.499926902   0.499926902   0.249983156
   0.499996552   0.499996552   0.750003448
Mg28Ni4O32
   1.00000000
   8.442341735   0.000012387  -0.000012387
   0.000012387   8.442341735  -0.000012387
  -0.000012387  -0.000012387   8.442341735
  Ni  Mg  O
  4  28  32
Direct configuration=     2
   0.000402253   0.000402253   0.000577769
   0.000402253   0.249422231   0.249597747
   0.249422231   0.000402253   0.249597747
   0.749496914   0.749496914   0.500503086
   0.999705446   0.999705446   0.499127682
   0.999861571   0.499697879   0.000357468
   0.999430321   0.500215505   0.499781096
   0.499697879   0.999861571   0.000357468
   0.500215505   0.999430321   0.499781096
   0.500157595   0.500157595   0.999888745
   0.500588911   0.500588911   0.500021914
   0.999861571   0.249642532   0.750302121
   0.999705446   0.750872318   0.250294554
   0.999430321   0.750218904   0.749784495
   0.499697879   0.249642532   0.250138429
   0.500157595   0.250111255   0.749842405
   0.500215505   0.750218904   0.250569679
   0.500588911   0.749978086   0.749411089
   0.249642532   0.999861571   0.750302121
   0.249642532   0.499697879   0.250138429
   0.250111255   0.500157595   0.749842405
   0.750872318   0.999705446   0.250294554
   0.750218904   0.999430321   0.749784495
   0.750218904   0.500215505   0.250569679
   0.749978086   0.500588911   0.749411089
   0.249140564   0.249140564   0.000859436
   0.249650835   0.249650835   0.499092861
   0.249650835   0.750907139   0.000349165
   0.249895754   0.750422958   0.499577042
   0.750907139   0.249650835   0.000349165
   0.750422958   0.249895754   0.499577042
   0.750422958   0.750422958   0.000104246
   0.250115724   0.250115724   0.249622517
   0.249496891   0.249496891   0.750026699
   0.249507888   0.749327313   0.249978989
   0.249852816   0.750459363   0.749857515
   0.749327313   0.249507888   0.249978989
   0.750459363   0.249852816   0.749857515
   0.750264219   0.750264219   0.248369447
   0.750072190   0.750072190   0.751401277
   0.250115724   0.000377483   0.999884276
   0.249507888   0.000021011   0.500672687
   0.249496891   0.499973301   0.000503109
   0.249852816   0.500142485   0.499540637
   0.749327313   0.000021011   0.000492112
   0.750264219   0.001630553   0.499735781
   0.750459363   0.500142485   0.000147184
   0.750072190   0.498598723   0.499927810
   0.000377483   0.250115724   0.999884276
   0.000021011   0.249507888   0.500672687
   0.000021011   0.749327313   0.000492112
   0.001630553   0.750264219   0.499735781
   0.499973301   0.249496891   0.000503109
   0.500142485   0.249852816   0.499540637
   0.500142485   0.750459363   0.000147184
   0.498598723   0.750072190   0.499927810
   0.000257946   0.000257946   0.249742054
   0.000492322   0.000492322   0.749440090
   0.000492322   0.500559910   0.249507678
   0.000067063   0.499602869   0.750397131
   0.500559910   0.000492322   0.249507678
   0.499602869   0.000067063   0.750397131
   0.499602869   0.499602869   0.249932937
   0.500011158   0.500011158   0.749988842
Mg28Ni4O32
   1.00000000
   8.442930276   0.000015525  -0.000015525
   0.000015525   8.442930276  -0.000015525
  -0.000015525  -0.000015525   8.442930276
  Ni  Mg  O
  4  28  32
Direct configuration=     3
   0.000429028   0.000429028   0.000613583
   0.000429028   0.249386417   0.249570972
   0.249386417   0.000429028   0.249570972
   0.749451164   0.749451164   0.500548836
   0.999693060   0.999693060   0.499054621
   0.999858236   0.499694501   0.000412380
   0.999414739   0.500222681   0.499750759
   0.499694501   0.999858236   0.000412380
   0.500222681   0.999414739   0.499750759
   0.500167914   0.500167914   0.999916217
   0.500606786   0.500606786   0.499981575
   0.999858236   0.249587620   0.750305499
   0.999693060   0.750945379   0.250306940
   0.999414739   0.750249241   0.749777319
   0.499694501   0.249587620   0.250141764
   0.500167914   0.250083783   0.749832086
   0.500222681   0.750249241   0.250585261
   0.500606786   0.750018425   0.749393214
   0.249587620   0.999858236   0.750305499
   0.249587620   0.499694501   0.250141764
   0.250083783   0.500167914   0.749832086
   0.750945379   0.999693060   0.250306940
   0.750249241   0.999414739   0.749777319
   0.750249241   0.500222681   0.250585261
   0.750018425   0.500606786   0.749393214
   0.249061385   0.249061385   0.000938615
   0.249591174   0.249591174   0.499006738
   0.249591174   0.750993262   0.000408826
   0.249840739   0.750487745   0.499512255
   0.750993262   0.249591174   0.000408826
   0.750487745   0.249840739   0.499512255
   0.750487745   0.750487745   0.000159261
   0.250076667   0.250076667   0.249576172
   0.249451249   0.249451249   0.750042836
   0.249455239   0.749326425   0.249956255
   0.249832576   0.750512054   0.749870742
   0.749326425   0.249455239   0.249956255
   0.750512054   0.249832576   0.749870742
   0.750302612   0.750302612   0.248259043
   0.750089163   0.750089163   0.751515911
   0.250076667   0.000423828   0.999923333
   0.249455239   0.000043745   0.500673575
   0.249451249   0.499957164   0.000548751
   0.249832576   0.500129258   0.499487946
   0.749326425   0.000043745   0.000544761
   0.750302612   0.001740957   0.499697388
   0.750512054   0.500129258   0.000167424
   0.750089163   0.498484089   0.499910837
   0.000423828   0.250076667   0.999923333
   0.000043745   0.249455239   0.500673575
   0.000043745   0.749326425   0.000544761
   0.001740957   0.750302612   0.499697388
   0.499957164   0.249451249   0.000548751
   0.500129258   0.249832576   0.499487946
   0.500129258   0.750512054   0.000167424
   0.498484089   0.750089163   0.499910837
   0.000318088   0.000318088   0.249681912
   0.000503115   0.000503115   0.749414435
   0.000503115   0.500585565   0.249496885
   0.000048515   0.499586333   0.750413667
   0.500585565   0.000503115   0.249496885
   0.499586333   0.000048515   0.750413667
   0.499586333   0.499586333   0.249951485
   0.500038918   0.500038918   0.749961082
Mg28Ni4O32
   1.00000000
   8.450248290   0.000054371  -0.000054371
   0.000054371   8.450248290  -0.000054371
  -0.000054371  -0.000054371   8.450248290
  Ni  Mg  O
  4  28  32
Direct configuration=     4
   0.000605982   0.000605982   0.000819158
   0.000605982   0.249180842   0.249394018
   0.249180842   0.000605982   0.249394018
   0.749062788   0.749062788   0.500937212
   0.999665403   0.999665403   0.498474927
   0.999882877   0.499785772   0.000981262
   0.999478866   0.500210769   0.499443383
   0.499785772   0.999882877   0.000981262
   0.500210769   0.999478866   0.499443383
   0.500231180   0.500231180   0.000324399
   0.500552327   0.500552327   0.499436868
   0.999882877   0.249018738   0.750214228
   0.999665403   0.751525073   0.250334597
   0.999478866   0.750556617   0.749789231
   0.499785772   0.249018738   0.250117123
   0.500231180   0.249675601   0.749768820
   0.500210769   0.750556617   0.250521134
   0.500552327   0.750563132   0.749447673
   0.249018738   0.999882877   0.750214228
   0.249018738   0.499785772   0.250117123
   0.249675601   0.500231180   0.749768820
   0.751525073   0.999665403   0.250334597
   0.750556617   0.999478866   0.749789231
   0.750556617   0.500210769   0.250521134
   0.750563132   0.500552327   0.749447673
   0.248408890   0.248408890   0.001591110
   0.248954215   0.248954215   0.498268003
   0.248954215   0.751731997   0.001045785
   0.249154758   0.751162254   0.498837746
   0.751731997   0.248954215   0.001045785
   0.751162254   0.249154758   0.498837746
   0.751162254   0.751162254   0.000845242
   0.249500719   0.249500719   0.249140890
   0.249069548   0.249069548   0.750239639
   0.248972635   0.749643851   0.249657874
   0.249603619   0.751012159   0.750119952
   0.749643851   0.248972635   0.249657874
   0.751012159   0.249603619   0.750119952
   0.750703188   0.750703188   0.247581346
   0.750299744   0.750299744   0.752383287
   0.249500719   0.000859110   0.000499281
   0.248972635   0.000342126   0.500356149
   0.249069548   0.499760361   0.000930452
   0.249603619   0.499880048   0.498987841
   0.749643851   0.000342126   0.001027365
   0.750703188   0.002418654   0.499296812
   0.751012159   0.499880048   0.000396381
   0.750299744   0.497616713   0.499700256
   0.000859110   0.249500719   0.000499281
   0.000342126   0.248972635   0.500356149
   0.000342126   0.749643851   0.001027365
   0.002418654   0.750703188   0.499296812
   0.499760361   0.249069548   0.000930452
   0.499880048   0.249603619   0.498987841
   0.499880048   0.751012159   0.000396381
   0.497616713   0.750299744   0.499700256
   0.001001482   0.001001482   0.248998518
   0.000405653   0.000405653   0.749324091
   0.000405653   0.500675909   0.249594347
   0.999781052   0.499554552   0.750445448
   0.500675909   0.000405653   0.249594347
   0.499554552   0.999781052   0.750445448
   0.499554552   0.499554552   0.250218948
   0.500397956   0.500397956   0.749602044
Mg28Ni4O32
   1.00000000
   8.455340786   0.000081039  -0.000081039
   0.000081039   8.455340786  -0.000081039
  -0.000081039  -0.000081039   8.455340786
  Ni  Mg  O
  4  28  32
Direct configuration=     5
   0.000631325   0.000631325   0.000802658
   0.000631325   0.249197342   0.249368675
   0.249197342   0.000631325   0.249368675
   0.748920378   0.748920378   0.501079622
   0.999718142   0.999718142   0.498299877
   0.999940420   0.499909338   0.001257877
   0.999665365   0.500139367   0.499295447
   0.499909338   0.999940420   0.001257877
   0.500139367   0.999665365   0.499295447
   0.500230840   0.500230840   0.000592631
   0.500344448   0.500344448   0.499095591
   0.999940420   0.248742123   0.750090662
   0.999718142   0.751700123   0.250281858
   0.999665365   0.750704553   0.749860633
   0.499909338   0.248742123   0.250059580
   0.500230840   0.249407369   0.749769160
   0.500139367   0.750704553   0.250334635
   0.500344448   0.750904409   0.749655552
   0.248742123   0.999940420   0.750090662
   0.248742123   0.499909338   0.250059580
   0.249407369   0.500230840   0.749769160
   0.751700123   0.999718142   0.250281858
   0.750704553   0.999665365   0.749860633
   0.750704553   0.500139367   0.250334635
   0.750904409   0.500344448   0.749655552
   0.248213744   0.248213744   0.001786256
   0.248632952   0.248632952   0.497999689
   0.248632952   0.752000311   0.001367048
   0.248750677   0.751497944   0.498502056
   0.752000311   0.248632952   0.001367048
   0.751497944   0.248750677   0.498502056
   0.751497944   0.751497944   0.001249323
   0.249112884   0.249112884   0.248971426
   0.248938812   0.248938812   0.750346661
   0.248771605   0.750031905   0.249470387
   0.249449296   0.751234667   0.750320938
   0.750031905   0.248771605   0.249470387
   0.751234667   0.249449296   0.750320938
   0.750910241   0.750910241   0.247612269
   0.750442507   0.750442507   0.752577799
   0.249112884   0.001028574   0.000887116
   0.248771605   0.000529613   0.499968095
   0.248938812   0.499653339   0.001061188
   0.249449296   0.499679062   0.498765333
   0.750031905   0.000529613   0.001228395
   0.750910241   0.002387731   0.499089759
   0.751234667   0.499679062   0.000550704
   0.750442507   0.497422201   0.499557493
   0.001028574   0.249112884   0.000887116
   0.000529613   0.248771605   0.499968095
   0.000529613   0.750031905   0.001228395
   0.002387731   0.750910241   0.499089759
   0.499653339   0.248938812   0.001061188
   0.499679062   0.249449296   0.498765333
   0.499679062   0.751234667   0.000550704
   0.497422201   0.750442507   0.499557493
   0.001368624   0.001368624   0.248631376
   0.000208197   0.000208197   0.749387142
   0.000208197   0.500612858   0.249791803
   0.999618745   0.499636144   0.750363856
   0.500612858   0.000208197   0.249791803
   0.499636144   0.999618745   0.750363856
   0.499636144   0.499636144   0.250381255
   0.500610073   0.500610073   0.749389927
Mg28Ni4O32
   1.00000000
   8.461460738   0.000112446  -0.000112446
   0.000112446   8.461460738  -0.000112446
  -0.000112446  -0.000112446   8.461460738
  Ni  Mg  O
  4  28  32
Direct configuration=     6
   0.000602821   0.000602821   0.000673166
   0.000602821   0.249326834   0.249397179
   0.249326834   0.000602821   0.249397179
   0.748857239   0.748857239   0.501142761
   0.999810339   0.999810339   0.498267063
   0.000031626   0.500056614   0.001436651
   0.999937033   0.500019098   0.499197090
   0.500056614   0.000031626   0.001436651
   0.500019098   0.999937033   0.499197090
   0.500197636   0.500197636   0.000813201
   0.500003014   0.500003014   0.498815824
   0.000031626   0.248563349   0.749943386
   0.999810339   0.751732937   0.250189661
   0.999937033   0.750802910   0.749980902
   0.500056614   0.248563349   0.249968374
   0.500197636   0.249186799   0.749802364
   0.500019098   0.750802910   0.250062967
   0.500003014   0.751184176   0.749996986
   0.248563349   0.000031626   0.749943386
   0.248563349   0.500056614   0.249968374
   0.249186799   0.500197636   0.749802364
   0.751732937   0.999810339   0.250189661
   0.750802910   0.999937033   0.749980902
   0.750802910   0.500019098   0.250062967
   0.751184176   0.500003014   0.749996986
   0.248220306   0.248220306   0.001779694
   0.248416941   0.248416941   0.497892888
   0.248416941   0.752107112   0.001583059
   0.248431803   0.751731294   0.498268706
   0.752107112   0.248416941   0.001583059
   0.751731294   0.248431803   0.498268706
   0.751731294   0.751731294   0.001568197
   0.248775601   0.248775601   0.248919292
   0.248897381   0.248897381   0.750410934
   0.248659912   0.750526550   0.249312361
   0.249262029   0.751374397   0.750531526
   0.750526550   0.248659912   0.249312361
   0.751374397   0.249262029   0.750531526
   0.751071229   0.751071229   0.248056420
   0.750596471   0.750596471   0.752467196
   0.248775601   0.001080708   0.001224399
   0.248659912   0.000687639   0.499473450
   0.248897381   0.499589066   0.001102619
   0.249262029   0.499468474   0.498625603
   0.750526550   0.000687639   0.001340088
   0.751071229   0.001943580   0.498928771
   0.751374397   0.499468474   0.000737971
   0.750596471   0.497532804   0.499403529
   0.001080708   0.248775601   0.001224399
   0.000687639   0.248659912   0.499473450
   0.000687639   0.750526550   0.001340088
   0.001943580   0.751071229   0.498928771
   0.499589066   0.248897381   0.001102619
   0.499468474   0.249262029   0.498625603
   0.499468474   0.751374397   0.000737971
   0.497532804   0.750596471   0.499403529
   0.001629692   0.001629692   0.248370308
   0.999926849   0.999926849   0.749511491
   0.999926849   0.500488509   0.250073151
   0.999515391   0.499785232   0.750214768
   0.500488509   0.999926849   0.250073151
   0.499785232   0.999515391   0.750214768
   0.499785232   0.499785232   0.250484609
   0.500764169   0.500764169   0.749235831
Mg28Ni4O32
   1.00000000
   8.467414076   0.000142239  -0.000142239
   0.000142239   8.467414076  -0.000142239
  -0.000142239  -0.000142239   8.467414076
  Ni  Mg  O
  4  28  32
Direct configuration=     7
   0.000572667   0.000572667   0.000521702
   0.000572667   0.249478298   0.249427333
   0.249478298   0.000572667   0.249427333
   0.748861182   0.748861182   0.501138818
   0.999872411   0.999872411   0.498318414
   0.000116280   0.500136063   0.001456697
   0.000129704   0.499912323   0.499177571
   0.500136063   0.000116280   0.001456697
   0.499912323   0.000129704   0.499177571
   0.500153870   0.500153870   0.000865150
   0.499694456   0.499694456   0.498736801
   0.000116280   0.248543303   0.749863937
   0.999872411   0.751681586   0.250127589
   0.000129704   0.750822429   0.750087677
   0.500136063   0.248543303   0.249883720
   0.500153870   0.249134850   0.749846130
   0.499912323   0.750822429   0.249870296
   0.499694456   0.751263199   0.750305544
   0.248543303   0.000116280   0.749863937
   0.248543303   0.500136063   0.249883720
   0.249134850   0.500153870   0.749846130
   0.751681586   0.999872411   0.250127589
   0.750822429   0.000129704   0.750087677
   0.750822429   0.499912323   0.249870296
   0.751263199   0.499694456   0.750305544
   0.248386993   0.248386993   0.001613007
   0.248385938   0.248385938   0.497924614
   0.248385938   0.752075386   0.001614062
   0.248341520   0.751787506   0.498212494
   0.752075386   0.248385938   0.001614062
   0.751787506   0.248341520   0.498212494
   0.751787506   0.751787506   0.001658480
   0.248671398   0.248671398   0.248993596
   0.248928110   0.248928110   0.750388852
   0.248647495   0.750871614   0.249263143
   0.249085966   0.751406171   0.750644399
   0.750871614   0.248647495   0.249263143
   0.751406171   0.249085966   0.750644399
   0.751137696   0.751137696   0.248673442
   0.750705352   0.750705352   0.752177075
   0.248671398   0.001006404   0.001328602
   0.248647495   0.000736857   0.499128386
   0.248928110   0.499611148   0.001071890
   0.249085966   0.499355601   0.498593829
   0.750871614   0.000736857   0.001352505
   0.751137696   0.001326558   0.498862304
   0.751406171   0.499355601   0.000914034
   0.750705352   0.497822925   0.499294648
   0.001006404   0.248671398   0.001328602
   0.000736857   0.248647495   0.499128386
   0.000736857   0.750871614   0.001352505
   0.001326558   0.751137696   0.498862304
   0.499611148   0.248928110   0.001071890
   0.499355601   0.249085966   0.498593829
   0.499355601   0.751406171   0.000914034
   0.497822925   0.750705352   0.499294648
   0.001674249   0.001674249   0.248325751
   0.999720703   0.999720703   0.749589436
   0.999720703   0.500410564   0.250279297
   0.999550917   0.499907847   0.750092153
   0.500410564   0.999720703   0.250279297
   0.499907847   0.999550917   0.750092153
   0.499907847   0.499907847   0.250449083
   0.500770700   0.500770700   0.749229300
Mg28Ni4O32
   1.00000000
   8.477014285   0.000189487  -0.000189487
   0.000189487   8.477014285  -0.000189487
  -0.000189487  -0.000189487   8.477014285
  Ni  Mg  O
  4  28  32
Direct configuration=     8
   0.000574803   0.000574803   0.000339186
   0.000574803   0.249660814   0.249425197
   0.249660814   0.000574803   0.249425197
   0.748895011   0.748895011   0.501104989
   0.999886615   0.999886615   0.498398522
   0.000221056   0.500146232   0.001336750
   0.000243790   0.499803518   0.499219297
   0.500146232   0.000221056   0.001336750
   0.499803518   0.000243790   0.499219297
   0.500095257   0.500095257   0.000742052
   0.499349500   0.499349500   0.498851502
   0.000221056   0.248663250   0.749853768
   0.999886615   0.751601478   0.250113385
   0.000243790   0.750780703   0.750196482
   0.500146232   0.248663250   0.249778944
   0.500095257   0.249257948   0.749904743
   0.499803518   0.750780703   0.249756210
   0.499349500   0.751148498   0.750650500
   0.248663250   0.000221056   0.749853768
   0.248663250   0.500146232   0.249778944
   0.249257948   0.500095257   0.749904743
   0.751601478   0.999886615   0.250113385
   0.750780703   0.000243790   0.750196482
   0.750780703   0.499803518   0.249756210
   0.751148498   0.499349500   0.750650500
   0.248730744   0.248730744   0.001269256
   0.248517440   0.248517440   0.498038173
   0.248517440   0.751961827   0.001482560
   0.248457162   0.751704917   0.498295083
   0.751961827   0.248517440   0.001482560
   0.751704917   0.248457162   0.498295083
   0.751704917   0.751704917   0.001542838
   0.248817761   0.248817761   0.249196283
   0.249010603   0.249010603   0.750254017
   0.248694338   0.751122185   0.249326025
   0.248840745   0.751369303   0.750667862
   0.751122185   0.248694338   0.249326025
   0.751369303   0.248840745   0.750667862
   0.751142885   0.751142885   0.249594915
   0.750796393   0.750796393   0.751707029
   0.248817761   0.000803717   0.001182239
   0.248694338   0.000673975   0.498877815
   0.249010603   0.499745983   0.000989397
   0.248840745   0.499332138   0.498630697
   0.751122185   0.000673975   0.001305662
   0.751142885   0.000405085   0.498857115
   0.751369303   0.499332138   0.001159255
   0.750796393   0.498292971   0.499203607
   0.000803717   0.248817761   0.001182239
   0.000673975   0.248694338   0.498877815
   0.000673975   0.751122185   0.001305662
   0.000405085   0.751142885   0.498857115
   0.499745983   0.249010603   0.000989397
   0.499332138   0.248840745   0.498630697
   0.499332138   0.751369303   0.001159255
   0.498292971   0.750796393   0.499203607
   0.001518842   0.001518842   0.248481158
   0.999576550   0.999576550   0.749590732
   0.999576550   0.500409268   0.250423450
   0.999771954   0.500004661   0.749995339
   0.500409268   0.999576550   0.250423450
   0.500004661   0.999771954   0.749995339
   0.500004661   0.500004661   0.250228046
   0.500601466   0.500601466   0.749398534
Mg28Ni4O32
   1.00000000
   8.487811567   0.000242167  -0.000242167
   0.000242167   8.487811567  -0.000242167
  -0.000242167  -0.000242167   8.487811567
  Ni  Mg  O
  4  28  32
Direct configuration=     9
   0.000649262   0.000649262   0.000249959
   0.000649262   0.249750041   0.249350738
   0.249750041   0.000649262   0.249350738
   0.748933934   0.748933934   0.501066066
   0.999790274   0.999790274   0.498438556
   0.000289831   0.500037517   0.001083172
   0.000115690   0.499782597   0.499323556
   0.500037517   0.000289831   0.001083172
   0.499782597   0.000115690   0.499323556
   0.500059891   0.500059891   0.000430978
   0.499200195   0.499200195   0.499192054
   0.000289831   0.248916828   0.749962483
   0.999790274   0.751561444   0.250209726
   0.000115690   0.750676444   0.750217403
   0.500037517   0.248916828   0.249710169
   0.500059891   0.249569022   0.749940109
   0.499782597   0.750676444   0.249884310
   0.499200195   0.750807946   0.750799805
   0.248916828   0.000289831   0.749962483
   0.248916828   0.500037517   0.249710169
   0.249569022   0.500059891   0.749940109
   0.751561444   0.999790274   0.250209726
   0.750676444   0.000115690   0.750217403
   0.750676444   0.499782597   0.249884310
   0.750807946   0.499200195   0.750799805
   0.249109700   0.249109700   0.000890300
   0.248803775   0.248803775   0.498173539
   0.248803775   0.751826461   0.001196225
   0.248812967   0.751467449   0.498532551
   0.751826461   0.248803775   0.001196225
   0.751467449   0.248812967   0.498532551
   0.751467449   0.751467449   0.001187033
   0.249291438   0.249291438   0.249437197
   0.249112055   0.249112055   0.750021684
   0.248786710   0.751028202   0.249538693
   0.248657925   0.751257370   0.750511207
   0.751028202   0.248786710   0.249538693
   0.751257370   0.248657925   0.750511207
   0.751042641   0.751042641   0.250328888
   0.750768533   0.750768533   0.751334993
   0.249291438   0.000562803   0.000708562
   0.248786710   0.000461307   0.498971798
   0.249112055   0.499978316   0.000887945
   0.248657925   0.499488793   0.498742630
   0.751028202   0.000461307   0.001213290
   0.751042641   0.999671112   0.498957359
   0.751257370   0.499488793   0.001342075
   0.750768533   0.498665007   0.499231467
   0.000562803   0.249291438   0.000708562
   0.000461307   0.248786710   0.498971798
   0.000461307   0.751028202   0.001213290
   0.999671112   0.751042641   0.498957359
   0.499978316   0.249112055   0.000887945
   0.499488793   0.248657925   0.498742630
   0.499488793   0.751257370   0.001342075
   0.498665007   0.750768533   0.499231467
   0.001165209   0.001165209   0.248834791
   0.999665932   0.999665932   0.749450428
   0.999665932   0.500549572   0.250334068
   0.000145094   0.499969110   0.750030890
   0.500549572   0.999665932   0.250334068
   0.499969110   0.000145094   0.750030890
   0.499969110   0.499969110   0.249854906
   0.500251830   0.500251830   0.749748170
Mg28Ni4O32
   1.00000000
   8.495364220   0.000279177  -0.000279177
   0.000279177   8.495364220  -0.000279177
  -0.000279177  -0.000279177   8.495364220
  Ni  Mg  O
  4  28  32
Direct configuration=     10
   0.000755587   0.000755587   0.000305093
   0.000755587   0.249694907   0.249244413
   0.249694907   0.000755587   0.249244413
   0.748964037   0.748964037   0.501035963
   0.999621999   0.999621999   0.498436448
   0.000284619   0.499883454   0.000819519
   0.999784181   0.499881159   0.499442443
   0.499883454   0.000284619   0.000819519
   0.499881159   0.999784181   0.499442443
   0.500073328   0.500073328   0.000118502
   0.499357646   0.499357646   0.499574554
   0.000284619   0.249180481   0.750116546
   0.999621999   0.751563552   0.250378001
   0.999784181   0.750557557   0.750118841
   0.499883454   0.249180481   0.249715381
   0.500073328   0.249881498   0.749926672
   0.499881159   0.750557557   0.250215819
   0.499357646   0.750425446   0.750642354
   0.249180481   0.000284619   0.750116546
   0.249180481   0.499883454   0.249715381
   0.249881498   0.500073328   0.749926672
   0.751563552   0.999621999   0.250378001
   0.750557557   0.999784181   0.750118841
   0.750557557   0.499881159   0.250215819
   0.750425446   0.499357646   0.750642354
   0.249335123   0.249335123   0.000664877
   0.249096237   0.249096237   0.498276586
   0.249096237   0.751723414   0.000903763
   0.249220097   0.751180557   0.498819443
   0.751723414   0.249096237   0.000903763
   0.751180557   0.249220097   0.498819443
   0.751180557   0.751180557   0.000779903
   0.249862565   0.249862565   0.249560542
   0.249198397   0.249198397   0.749812403
   0.248889448   0.750616409   0.249806412
   0.248683726   0.751107528   0.750231096
   0.750616409   0.248889448   0.249806412
   0.751107528   0.248683726   0.750231096
   0.750857282   0.750857282   0.250435502
   0.750579312   0.750579312   0.751292108
   0.249862565   0.000439458   0.000137435
   0.248889448   0.000193588   0.499383591
   0.249198397   0.500187597   0.000801603
   0.248683726   0.499768904   0.498892472
   0.750616409   0.000193588   0.001110552
   0.750857282   0.999564498   0.499142718
   0.751107528   0.499768904   0.001316274
   0.750579312   0.498707892   0.499420688
   0.000439458   0.249862565   0.000137435
   0.000193588   0.248889448   0.499383591
   0.000193588   0.750616409   0.001110552
   0.999564498   0.750857282   0.499142718
   0.500187597   0.249198397   0.000801603
   0.499768904   0.248683726   0.498892472
   0.499768904   0.751107528   0.001316274
   0.498707892   0.750579312   0.499420688
   0.000807028   0.000807028   0.249192972
   0.999976082   0.999976082   0.749256423
   0.999976082   0.500743577   0.250023918
   0.000455397   0.499802752   0.750197248
   0.500743577   0.999976082   0.250023918
   0.499802752   0.000455397   0.750197248
   0.499802752   0.499802752   0.249544603
   0.499900880   0.499900880   0.750099120
Mg28Ni4O32
   1.00000000
   8.497637294   0.000291254  -0.000291254
   0.000291254   8.497637294  -0.000291254
  -0.000291254  -0.000291254   8.497637294
  Ni  Mg  O
  4  28  32
Direct configuration=     11
   0.000803968   0.000803968   0.000403354
   0.000803968   0.249596646   0.249196032
   0.249596646   0.000803968   0.249196032
   0.748990857   0.748990857   0.501009143