Mg28Ni4O32
   1.00000000
   8.440347832  -0.000004152  -0.000000000
  -0.000004152   8.440347832   0.000000000
  -0.000000000   0.000000000   8.440340372
  Ni  Mg  O
  4  28  32
Direct configuration=     1
   0.000040524   0.000040524   0.000000000
   0.000040524   0.000040524   0.500000000
   0.249959476   0.249959476   0.000000000
   0.249959476   0.249959476   0.500000000
   0.000091670   0.499914604   0.000000000
   0.000091670   0.499914604   0.500000000
   0.499914604   0.000091670   0.000000000
   0.499914604   0.000091670   0.500000000
   0.499899921   0.499899921   0.000000000
   0.499899921   0.499899921   0.500000000
   0.000229193   0.249770807   0.250000000
   0.000229193   0.249770807   0.750000000
   0.999984992   0.750214931   0.250000000
   0.999984992   0.750214931   0.750000000
   0.499785069   0.250015008   0.250000000
   0.499785069   0.250015008   0.750000000
   0.500022010   0.749977990   0.250000000
   0.500022010   0.749977990   0.750000000
   0.249770807   0.000229193   0.250000000
   0.249770807   0.000229193   0.750000000
   0.250015008   0.499785069   0.250000000
   0.250015008   0.499785069   0.750000000
   0.750214931   0.999984992   0.250000000
   0.750214931   0.999984992   0.750000000
   0.749977990   0.500022010   0.250000000
   0.749977990   0.500022010   0.750000000
   0.249908330   0.750085396   0.000000000
   0.249908330   0.750085396   0.500000000
   0.750085396   0.249908330   0.000000000
   0.750085396   0.249908330   0.500000000
   0.750100079   0.750100079   0.000000000
   0.750100079   0.750100079   0.500000000
   0.249962189   0.249962189   0.250000000
   0.249962189   0.249962189   0.750000000
   0.249993672   0.749973787   0.250000000
   0.249993672   0.749973787   0.750000000
   0.749973787   0.249993672   0.250000000
   0.749973787   0.249993672   0.750000000
   0.750005951   0.750005951   0.250000000
   0.750005951   0.750005951   0.750000000
   0.250086947   0.999913053   0.000000000
   0.250086947   0.999913053   0.500000000
   0.249944685   0.500150545   0.000000000
   0.249944685   0.500150545   0.500000000
   0.749849455   0.000055315   0.000000000
   0.749849455   0.000055315   0.500000000
   0.750051337   0.499948663   0.000000000
   0.750051337   0.499948663   0.500000000
   0.999913053   0.250086947   0.000000000
   0.999913053   0.250086947   0.500000000
   0.000055315   0.749849455   0.000000000
   0.000055315   0.749849455   0.500000000
   0.500150545   0.249944685   0.000000000
   0.500150545   0.249944685   0.500000000
   0.499948663   0.750051337   0.000000000
   0.499948663   0.750051337   0.500000000
   0.000037811   0.000037811   0.250000000
   0.000037811   0.000037811   0.750000000
   0.000006328   0.500026213   0.250000000
   0.000006328   0.500026213   0.750000000
   0.500026213   0.000006328   0.250000000
   0.500026213   0.000006328   0.750000000
   0.499994049   0.499994049   0.250000000
   0.499994049   0.499994049   0.750000000
Mg28Ni4O32
   1.00000000
   8.442376355  -0.000030065  -0.000000000
  -0.000030065   8.442376355   0.000000000
  -0.000000000   0.000000000   8.442325523
  Ni  Mg  O
  4  28  32
Direct configuration=     2
   0.000236326   0.000236326   0.000000000
   0.000236326   0.000236326   0.500000000
   0.249763674   0.249763674   0.000000000
   0.249763674   0.249763674   0.500000000
   0.000540789   0.499492035   0.000000000
   0.000540789   0.499492035   0.500000000
   0.499492035   0.000540789   0.000000000
   0.499492035   0.000540789   0.500000000
   0.499414875   0.499414875   0.000000000
   0.499414875   0.499414875   0.500000000
   0.001316581   0.248683419   0.250000000
   0.001316581   0.248683419   0.750000000
   0.999973643   0.751224216   0.250000000
   0.999973643   0.751224216   0.750000000
   0.498775784   0.250026357   0.250000000
   0.498775784   0.250026357   0.750000000
   0.500072004   0.749927996   0.250000000
   0.500072004   0.749927996   0.750000000
   0.248683419   0.001316581   0.250000000
   0.248683419   0.001316581   0.750000000
   0.250026357   0.498775784   0.250000000
   0.250026357   0.498775784   0.750000000
   0.751224216   0.999973643   0.250000000
   0.751224216   0.999973643   0.750000000
   0.749927996   0.500072004   0.250000000
   0.749927996   0.500072004   0.750000000
   0.249459211   0.750507965   0.000000000
   0.249459211   0.750507965   0.500000000
   0.750507965   0.249459211   0.000000000
   0.750507965   0.249459211   0.500000000
   0.750585125   0.750585125   0.000000000
   0.750585125   0.750585125   0.500000000
   0.249747156   0.249747156   0.250000000
   0.249747156   0.249747156   0.750000000
   0.249924274   0.749887548   0.250000000
   0.249924274   0.749887548   0.750000000
   0.749887548   0.249924274   0.250000000
   0.749887548   0.249924274   0.750000000
   0.750083831   0.750083831   0.250000000
   0.750083831   0.750083831   0.750000000
   0.250448074   0.999551926   0.000000000
   0.250448074   0.999551926   0.500000000
   0.249696999   0.500819502   0.000000000
   0.249696999   0.500819502   0.500000000
   0.749180498   0.000303001   0.000000000
   0.749180498   0.000303001   0.500000000
   0.750279988   0.499720012   0.000000000
   0.750279988   0.499720012   0.500000000
   0.999551926   0.250448074   0.000000000
   0.999551926   0.250448074   0.500000000
   0.000303001   0.749180498   0.000000000
   0.000303001   0.749180498   0.500000000
   0.500819502   0.249696999   0.000000000
   0.500819502   0.249696999   0.500000000
   0.499720012   0.750279988   0.000000000
   0.499720012   0.750279988   0.500000000
   0.000252844   0.000252844   0.250000000
   0.000252844   0.000252844   0.750000000
   0.000075726   0.500112452   0.250000000
   0.000075726   0.500112452   0.750000000
   0.500112452   0.000075726   0.250000000
   0.500112452   0.000075726   0.750000000
   0.499916169   0.499916169   0.250000000
   0.499916169   0.499916169   0.750000000
Mg28Ni4O32
   1.00000000
   8.442986726  -0.000038974  -0.000000000
  -0.000038974   8.442986726   0.000000000
  -0.000000000   0.000000000   8.442921614
  Ni  Mg  O
  4  28  32
Direct configuration=     3
   0.000261344   0.000261344   0.000000000
   0.000261344   0.000261344   0.500000000
   0.249738656   0.249738656   0.000000000
   0.249738656   0.249738656   0.500000000
   0.000600368   0.499432564   0.000000000
   0.000600368   0.499432564   0.500000000
   0.499432564   0.000600368   0.000000000
   0.499432564   0.000600368   0.500000000
   0.499354084   0.499354084   0.000000000
   0.499354084   0.499354084   0.500000000
   0.001430192   0.248569808   0.250000000
   0.001430192   0.248569808   0.750000000
   0.000025028   0.751321505   0.250000000
   0.000025028   0.751321505   0.750000000
   0.498678495   0.249974972   0.250000000
   0.498678495   0.249974972   0.750000000
   0.500030045   0.749969955   0.250000000
   0.500030045   0.749969955   0.750000000
   0.248569808   0.001430192   0.250000000
   0.248569808   0.001430192   0.750000000
   0.249974972   0.498678495   0.250000000
   0.249974972   0.498678495   0.750000000
   0.751321505   0.000025028   0.250000000
   0.751321505   0.000025028   0.750000000
   0.749969955   0.500030045   0.250000000
   0.749969955   0.500030045   0.750000000
   0.249399632   0.750567436   0.000000000
   0.249399632   0.750567436   0.500000000
   0.750567436   0.249399632   0.000000000
   0.750567436   0.249399632   0.500000000
   0.750645916   0.750645916   0.000000000
   0.750645916   0.750645916   0.500000000
   0.249693390   0.249693390   0.250000000
   0.249693390   0.249693390   0.750000000
   0.249880400   0.749914986   0.250000000
   0.249880400   0.749914986   0.750000000
   0.749914986   0.249880400   0.250000000
   0.749914986   0.249880400   0.750000000
   0.750137549   0.750137549   0.250000000
   0.750137549   0.750137549   0.750000000
   0.250438284   0.999561716   0.000000000
   0.250438284   0.999561716   0.500000000
   0.249682225   0.500849573   0.000000000
   0.249682225   0.500849573   0.500000000
   0.749150427   0.000317775   0.000000000
   0.749150427   0.000317775   0.500000000
   0.750294329   0.499705671   0.000000000
   0.750294329   0.499705671   0.500000000
   0.999561716   0.250438284   0.000000000
   0.999561716   0.250438284   0.500000000
   0.000317775   0.749150427   0.000000000
   0.000317775   0.749150427   0.500000000
   0.500849573   0.249682225   0.000000000
   0.500849573   0.249682225   0.500000000
   0.499705671   0.750294329   0.000000000
   0.499705671   0.750294329   0.500000000
   0.000306610   0.000306610   0.250000000
   0.000306610   0.000306610   0.750000000
   0.000119600   0.500085014   0.250000000
   0.000119600   0.500085014   0.750000000
   0.500085014   0.000119600   0.250000000
   0.500085014   0.000119600   0.750000000
   0.499862451   0.499862451   0.250000000
   0.499862451   0.499862451   0.750000000
Mg28Ni4O32
   1.00000000
   8.450077457  -0.000144504  -0.000000000
  -0.000144504   8.450077457   0.000000000
  -0.000000000   0.000000000   8.449842596
  Ni  Mg  O
  4  28  32
Direct configuration=     4
   0.000464736   0.000464736   0.000000000
   0.000464736   0.000464736   0.500000000
   0.249535264   0.249535264   0.000000000
   0.249535264   0.249535264   0.500000000
   0.001093457   0.498923654   0.000000000
   0.001093457   0.498923654   0.500000000
   0.498923654   0.001093457   0.000000000
   0.498923654   0.001093457   0.500000000
   0.498867233   0.498867233   0.000000000
   0.498867233   0.498867233   0.500000000
   0.002235894   0.247764106   0.250000000
   0.002235894   0.247764106   0.750000000
   0.000679487   0.751967152   0.250000000
   0.000679487   0.751967152   0.750000000
   0.498032848   0.249320513   0.250000000
   0.498032848   0.249320513   0.750000000
   0.499473231   0.750526769   0.250000000
   0.499473231   0.750526769   0.750000000
   0.247764106   0.002235894   0.250000000
   0.247764106   0.002235894   0.750000000
   0.249320513   0.498032848   0.250000000
   0.249320513   0.498032848   0.750000000
   0.751967152   0.000679487   0.250000000
   0.751967152   0.000679487   0.750000000
   0.750526769   0.499473231   0.250000000
   0.750526769   0.499473231   0.750000000
   0.248906543   0.751076346   0.000000000
   0.248906543   0.751076346   0.500000000
   0.751076346   0.248906543   0.000000000
   0.751076346   0.248906543   0.500000000
   0.751132767   0.751132767   0.000000000
   0.751132767   0.751132767   0.500000000
   0.249131893   0.249131893   0.250000000
   0.249131893   0.249131893   0.750000000
   0.249352571   0.750338114   0.250000000
   0.249352571   0.750338114   0.750000000
   0.750338114   0.249352571   0.250000000
   0.750338114   0.249352571   0.750000000
   0.750785096   0.750785096   0.250000000
   0.750785096   0.750785096   0.750000000
   0.250087060   0.999912940   0.000000000
   0.250087060   0.999912940   0.500000000
   0.249620244   0.500829702   0.000000000
   0.249620244   0.500829702   0.500000000
   0.749170298   0.000379756   0.000000000
   0.749170298   0.000379756   0.500000000
   0.750365511   0.499634489   0.000000000
   0.750365511   0.499634489   0.500000000
   0.999912940   0.250087060   0.000000000
   0.999912940   0.250087060   0.500000000
   0.000379756   0.749170298   0.000000000
   0.000379756   0.749170298   0.500000000
   0.500829702   0.249620244   0.000000000
   0.500829702   0.249620244   0.500000000
   0.499634489   0.750365511   0.000000000
   0.499634489   0.750365511   0.500000000
   0.000868107   0.000868107   0.250000000
   0.000868107   0.000868107   0.750000000
   0.000647429   0.499661886   0.250000000
   0.000647429   0.499661886   0.750000000
   0.499661886   0.000647429   0.250000000
   0.499661886   0.000647429   0.750000000
   0.499214904   0.499214904   0.250000000
   0.499214904   0.499214904   0.750000000
Mg28Ni4O32
   1.00000000
   8.454753435  -0.000215011  -0.000000000
  -0.000215011   8.454753435   0.000000000
  -0.000000000   0.000000000   8.454402009
  Ni  Mg  O
  4  28  32
Direct configuration=     5
   0.000529648   0.000529648   0.000000000
   0.000529648   0.000529648   0.500000000
   0.249470352   0.249470352   0.000000000
   0.249470352   0.249470352   0.500000000
   0.001257868   0.498737948   0.000000000
   0.001257868   0.498737948   0.500000000
   0.498737948   0.001257868   0.000000000
   0.498737948   0.001257868   0.500000000
   0.498717942   0.498717942   0.000000000
   0.498717942   0.498717942   0.500000000
   0.002396512   0.247603488   0.250000000
   0.002396512   0.247603488   0.750000000
   0.001067360   0.752061344   0.250000000
   0.001067360   0.752061344   0.750000000
   0.497938656   0.248932640   0.250000000
   0.497938656   0.248932640   0.750000000
   0.499127276   0.750872724   0.250000000
   0.499127276   0.750872724   0.750000000
   0.247603488   0.002396512   0.250000000
   0.247603488   0.002396512   0.750000000
   0.248932640   0.497938656   0.250000000
   0.248932640   0.497938656   0.750000000
   0.752061344   0.001067360   0.250000000
   0.752061344   0.001067360   0.750000000
   0.750872724   0.499127276   0.250000000
   0.750872724   0.499127276   0.750000000
   0.248742132   0.751262052   0.000000000
   0.248742132   0.751262052   0.500000000
   0.751262052   0.248742132   0.000000000
   0.751262052   0.248742132   0.500000000
   0.751282058   0.751282058   0.000000000
   0.751282058   0.751282058   0.500000000
   0.248853789   0.248853789   0.250000000
   0.248853789   0.248853789   0.750000000
   0.249039611   0.750660474   0.250000000
   0.249039611   0.750660474   0.750000000
   0.750660474   0.249039611   0.250000000
   0.750660474   0.249039611   0.750000000
   0.751171830   0.751171830   0.250000000
   0.751171830   0.751171830   0.750000000
   0.249742317   0.000257683   0.000000000
   0.249742317   0.000257683   0.500000000
   0.249623587   0.500601945   0.000000000
   0.249623587   0.500601945   0.500000000
   0.749398055   0.000376413   0.000000000
   0.749398055   0.000376413   0.500000000
   0.750378922   0.499621078   0.000000000
   0.750378922   0.499621078   0.500000000
   0.000257683   0.249742317   0.000000000
   0.000257683   0.249742317   0.500000000
   0.000376413   0.749398055   0.000000000
   0.000376413   0.749398055   0.500000000
   0.500601945   0.249623587   0.000000000
   0.500601945   0.249623587   0.500000000
   0.499621078   0.750378922   0.000000000
   0.499621078   0.750378922   0.500000000
   0.001146211   0.001146211   0.250000000
   0.001146211   0.001146211   0.750000000
   0.000960389   0.499339526   0.250000000
   0.000960389   0.499339526   0.750000000
   0.499339526   0.000960389   0.250000000
   0.499339526   0.000960389   0.750000000
   0.498828170   0.498828170   0.250000000
   0.498828170   0.498828170   0.750000000
Mg28Ni4O32
   1.00000000
   8.460347500  -0.000299313  -0.000000000
  -0.000299313   8.460347500   0.000000000
  -0.000000000   0.000000000   8.459850055
  Ni  Mg  O
  4  28  32
Direct configuration=     6
   0.000541929   0.000541929   0.000000000
   0.000541929   0.000541929   0.500000000
   0.249458071   0.249458071   0.000000000
   0.249458071   0.249458071   0.500000000
   0.001298360   0.498664899   0.000000000
   0.001298360   0.498664899   0.500000000
   0.498664899   0.001298360   0.000000000
   0.498664899   0.001298360   0.500000000
   0.498699465   0.498699465   0.000000000
   0.498699465   0.498699465   0.500000000
   0.002288046   0.247711954   0.250000000
   0.002288046   0.247711954   0.750000000
   0.001370624   0.751926298   0.250000000
   0.001370624   0.751926298   0.750000000
   0.498073702   0.248629376   0.250000000
   0.498073702   0.248629376   0.750000000
   0.498832779   0.751167221   0.250000000
   0.498832779   0.751167221   0.750000000
   0.247711954   0.002288046   0.250000000
   0.247711954   0.002288046   0.750000000
   0.248629376   0.498073702   0.250000000
   0.248629376   0.498073702   0.750000000
   0.751926298   0.001370624   0.250000000
   0.751926298   0.001370624   0.750000000
   0.751167221   0.498832779   0.250000000
   0.751167221   0.498832779   0.750000000
   0.248701640   0.751335101   0.000000000
   0.248701640   0.751335101   0.500000000
   0.751335101   0.248701640   0.000000000
   0.751335101   0.248701640   0.500000000
   0.751300535   0.751300535   0.000000000
   0.751300535   0.751300535   0.500000000
   0.248667126   0.248667126   0.250000000
   0.248667126   0.248667126   0.750000000
   0.248771488   0.751023668   0.250000000
   0.248771488   0.751023668   0.750000000
   0.751023668   0.248771488   0.250000000
   0.751023668   0.248771488   0.750000000
   0.751510077   0.751510077   0.250000000
   0.751510077   0.751510077   0.750000000
   0.249327789   0.000672211   0.000000000
   0.249327789   0.000672211   0.500000000
   0.249619241   0.500233719   0.000000000
   0.249619241   0.500233719   0.500000000
   0.749766281   0.000380759   0.000000000
   0.749766281   0.000380759   0.500000000
   0.750410658   0.499589342   0.000000000
   0.750410658   0.499589342   0.500000000
   0.000672211   0.249327789   0.000000000
   0.000672211   0.249327789   0.500000000
   0.000380759   0.749766281   0.000000000
   0.000380759   0.749766281   0.500000000
   0.500233719   0.249619241   0.000000000
   0.500233719   0.249619241   0.500000000
   0.499589342   0.750410658   0.000000000
   0.499589342   0.750410658   0.500000000
   0.001332874   0.001332874   0.250000000
   0.001332874   0.001332874   0.750000000
   0.001228512   0.498976332   0.250000000
   0.001228512   0.498976332   0.750000000
   0.498976332   0.001228512   0.250000000
   0.498976332   0.001228512   0.750000000
   0.498489923   0.498489923   0.250000000
   0.498489923   0.498489923   0.750000000
Mg28Ni4O32
   1.00000000
   8.466088236  -0.000384759  -0.000000000
  -0.000384759   8.466088236   0.000000000
  -0.000000000   0.000000000   8.465434019
  Ni  Mg  O
  4  28  32
Direct configuration=     7
   0.000512966   0.000512966   0.000000000
   0.000512966   0.000512966   0.500000000
   0.249487034   0.249487034   0.000000000
   0.249487034   0.249487034   0.500000000
   0.001231741   0.498697638   0.000000000
   0.001231741   0.498697638   0.500000000
   0.498697638   0.001231741   0.000000000
   0.498697638   0.001231741   0.500000000
   0.498783933   0.498783933   0.000000000
   0.498783933   0.498783933   0.500000000
   0.002036980   0.247963020   0.250000000
   0.002036980   0.247963020   0.750000000
   0.001441927   0.751693566   0.250000000
   0.001441927   0.751693566   0.750000000
   0.498306434   0.248558073   0.250000000
   0.498306434   0.248558073   0.750000000
   0.498722564   0.751277436   0.250000000
   0.498722564   0.751277436   0.750000000
   0.247963020   0.002036980   0.250000000
   0.247963020   0.002036980   0.750000000
   0.248558073   0.498306434   0.250000000
   0.248558073   0.498306434   0.750000000
   0.751693566   0.001441927   0.250000000
   0.751693566   0.001441927   0.750000000
   0.751277436   0.498722564   0.250000000
   0.751277436   0.498722564   0.750000000
   0.248768259   0.751302362   0.000000000
   0.248768259   0.751302362   0.500000000
   0.751302362   0.248768259   0.000000000
   0.751302362   0.248768259   0.500000000
   0.751216067   0.751216067   0.000000000
   0.751216067   0.751216067   0.500000000
   0.248642490   0.248642490   0.250000000
   0.248642490   0.248642490   0.750000000
   0.248656700   0.751292808   0.250000000
   0.248656700   0.751292808   0.750000000
   0.751292808   0.248656700   0.250000000
   0.751292808   0.248656700   0.750000000
   0.751663474   0.751663474   0.250000000
   0.751663474   0.751663474   0.750000000
   0.249026920   0.000973080   0.000000000
   0.249026920   0.000973080   0.500000000
   0.249562770   0.499921525   0.000000000
   0.249562770   0.499921525   0.500000000
   0.750078475   0.000437230   0.000000000
   0.750078475   0.000437230   0.500000000
   0.750495423   0.499504577   0.000000000
   0.750495423   0.499504577   0.500000000
   0.000973080   0.249026920   0.000000000
   0.000973080   0.249026920   0.500000000
   0.000437230   0.750078475   0.000000000
   0.000437230   0.750078475   0.500000000
   0.499921525   0.249562770   0.000000000
   0.499921525   0.249562770   0.500000000
   0.499504577   0.750495423   0.000000000
   0.499504577   0.750495423   0.500000000
   0.001357510   0.001357510   0.250000000
   0.001357510   0.001357510   0.750000000
   0.001343300   0.498707192   0.250000000
   0.001343300   0.498707192   0.750000000
   0.498707192   0.001343300   0.250000000
   0.498707192   0.001343300   0.750000000
   0.498336526   0.498336526   0.250000000
   0.498336526   0.498336526   0.750000000
Mg28Ni4O32
   1.00000000
   8.476115328  -0.000532174   0.000000000
  -0.000532174   8.476115328   0.000000000
   0.000000000   0.000000000   8.475179519
  Ni  Mg  O
  4  28  32
Direct configuration=     8
   0.000448705   0.000448705   0.000000000
   0.000448705   0.000448705   0.500000000
   0.249551295   0.249551295   0.000000000
   0.249551295   0.249551295   0.500000000
   0.001059384   0.498818773   0.000000000
   0.001059384   0.498818773   0.500000000
   0.498818773   0.001059384   0.000000000
   0.498818773   0.001059384   0.500000000
   0.498974052   0.498974052   0.000000000
   0.498974052   0.498974052   0.500000000
   0.001624143   0.248375857   0.250000000
   0.001624143   0.248375857   0.750000000
   0.001263379   0.751342509   0.250000000
   0.001263379   0.751342509   0.750000000
   0.498657491   0.248736621   0.250000000
   0.498657491   0.248736621   0.750000000
   0.498786508   0.751213492   0.250000000
   0.498786508   0.751213492   0.750000000
   0.248375857   0.001624143   0.250000000
   0.248375857   0.001624143   0.750000000
   0.248736621   0.498657491   0.250000000
   0.248736621   0.498657491   0.750000000
   0.751342509   0.001263379   0.250000000
   0.751342509   0.001263379   0.750000000
   0.751213492   0.498786508   0.250000000
   0.751213492   0.498786508   0.750000000
   0.248940616   0.751181227   0.000000000
   0.248940616   0.751181227   0.500000000
   0.751181227   0.248940616   0.000000000
   0.751181227   0.248940616   0.500000000
   0.751025948   0.751025948   0.000000000
   0.751025948   0.751025948   0.500000000
   0.248789360   0.248789360   0.250000000
   0.248789360   0.248789360   0.750000000
   0.248674487   0.751554560   0.250000000
   0.248674487   0.751554560   0.750000000
   0.751554560   0.248674487   0.250000000
   0.751554560   0.248674487   0.750000000
   0.751654596   0.751654596   0.250000000
   0.751654596   0.751654596   0.750000000
   0.248758421   0.001241579   0.000000000
   0.248758421   0.001241579   0.500000000
   0.249391456   0.499612352   0.000000000
   0.249391456   0.499612352   0.500000000
   0.750387648   0.000608544   0.000000000
   0.750387648   0.000608544   0.500000000
   0.750707628   0.499292372   0.000000000
   0.750707628   0.499292372   0.500000000
   0.001241579   0.248758421   0.000000000
   0.001241579   0.248758421   0.500000000
   0.000608544   0.750387648   0.000000000
   0.000608544   0.750387648   0.500000000
   0.499612352   0.249391456   0.000000000
   0.499612352   0.249391456   0.500000000
   0.499292372   0.750707628   0.000000000
   0.499292372   0.750707628   0.500000000
   0.001210640   0.001210640   0.250000000
   0.001210640   0.001210640   0.750000000
   0.001325513   0.498445440   0.250000000
   0.001325513   0.498445440   0.750000000
   0.498445440   0.001325513   0.250000000
   0.498445440   0.001325513   0.750000000
   0.498345404   0.498345404   0.250000000
   0.498345404   0.498345404   0.750000000
Mg28Ni4O32
   1.00000000
   8.487918751  -0.000704281   0.000000000
  -0.000704281   8.487918751   0.000000000
   0.000000000   0.000000000   8.486643465
  Ni  Mg  O
  4  28  32
Direct configuration=     9
   0.000387572   0.000387572   0.000000000
   0.000387572   0.000387572   0.500000000
   0.249612428   0.249612428   0.000000000
   0.249612428   0.249612428   0.500000000
   0.000857255   0.498977058   0.000000000
   0.000857255   0.498977058   0.500000000
   0.498977058   0.000857255   0.000000000
   0.498977058   0.000857255   0.500000000
   0.499180840   0.499180840   0.000000000
   0.499180840   0.499180840   0.500000000
   0.001288592   0.248711408   0.250000000
   0.001288592   0.248711408   0.750000000
   0.000786491   0.751081475   0.250000000
   0.000786491   0.751081475   0.750000000
   0.498918525   0.249213509   0.250000000
   0.498918525   0.249213509   0.750000000
   0.499103538   0.750896462   0.250000000
   0.499103538   0.750896462   0.750000000
   0.248711408   0.001288592   0.250000000
   0.248711408   0.001288592   0.750000000
   0.249213509   0.498918525   0.250000000
   0.249213509   0.498918525   0.750000000
   0.751081475   0.000786491   0.250000000
   0.751081475   0.000786491   0.750000000
   0.750896462   0.499103538   0.250000000
   0.750896462   0.499103538   0.750000000
   0.249142745   0.751022942   0.000000000
   0.249142745   0.751022942   0.500000000
   0.751022942   0.249142745   0.000000000
   0.751022942   0.249142745   0.500000000
   0.750819160   0.750819160   0.000000000
   0.750819160   0.750819160   0.500000000
   0.249134946   0.249134946   0.250000000
   0.249134946   0.249134946   0.750000000
   0.248919118   0.751581565   0.250000000
   0.248919118   0.751581565   0.750000000
   0.751581565   0.248919118   0.250000000
   0.751581565   0.248919118   0.750000000
   0.751341634   0.751341634   0.250000000
   0.751341634   0.751341634   0.750000000
   0.248757979   0.001242021   0.000000000
   0.248757979   0.001242021   0.500000000
   0.249151751   0.499579089   0.000000000
   0.249151751   0.499579089   0.500000000
   0.750420911   0.000848249   0.000000000
   0.750420911   0.000848249   0.500000000
   0.750979687   0.499020313   0.000000000
   0.750979687   0.499020313   0.500000000
   0.001242021   0.248757979   0.000000000
   0.001242021   0.248757979   0.500000000
   0.000848249   0.750420911   0.000000000
   0.000848249   0.750420911   0.500000000
   0.499579089   0.249151751   0.000000000
   0.499579089   0.249151751   0.500000000
   0.499020313   0.750979687   0.000000000
   0.499020313   0.750979687   0.500000000
   0.000865054   0.000865054   0.250000000
   0.000865054   0.000865054   0.750000000
   0.001080882   0.498418435   0.250000000
   0.001080882   0.498418435   0.750000000
   0.498418435   0.001080882   0.250000000
   0.498418435   0.001080882   0.750000000
   0.498658366   0.498658366   0.250000000
   0.498658366   0.498658366   0.750000000
Mg28Ni4O32
   1.00000000
   8.496571385  -0.000830538   0.000000000
  -0.000830538   8.496571385   0.000000000
   0.000000000   0.000000000   8.495038191
  Ni  Mg  O
  4  28  32
Direct configuration=     10
   0.000369189   0.000369189   0.000000000
   0.000369189   0.000369189   0.500000000
   0.249630811   0.249630811   0.000000000
   0.249630811   0.249630811   0.500000000
   0.000739575   0.499086255   0.000000000
   0.000739575   0.499086255   0.500000000
   0.499086255   0.000739575   0.000000000
   0.499086255   0.000739575   0.500000000
   0.499289513   0.499289513   0.000000000
   0.499289513   0.499289513   0.500000000
   0.001224500   0.248775500   0.250000000
   0.001224500   0.248775500   0.750000000
   0.000255599   0.751049471   0.250000000
   0.000255599   0.751049471   0.750000000
   0.498950529   0.249744401   0.250000000
   0.498950529   0.249744401   0.750000000
   0.499518700   0.750481300   0.250000000
   0.499518700   0.750481300   0.750000000
   0.248775500   0.001224500   0.250000000
   0.248775500   0.001224500   0.750000000
   0.249744401   0.498950529   0.250000000
   0.249744401   0.498950529   0.750000000
   0.751049471   0.000255599   0.250000000
   0.751049471   0.000255599   0.750000000
   0.750481300   0.499518700   0.250000000
   0.750481300   0.499518700   0.750000000
   0.249260425   0.750913745   0.000000000
   0.249260425   0.750913745   0.500000000
   0.750913745   0.249260425   0.000000000
   0.750913745   0.249260425   0.500000000
   0.750710487   0.750710487   0.000000000
   0.750710487   0.750710487   0.500000000
   0.249531632   0.249531632   0.250000000
   0.249531632   0.249531632   0.750000000
   0.249299216   0.751283206   0.250000000
   0.249299216   0.751283206   0.750000000
   0.751283206   0.249299216   0.250000000
   0.751283206   0.249299216   0.750000000
   0.750822206   0.750822206   0.250000000
   0.750822206   0.750822206   0.750000000
   0.249065691   0.000934309   0.000000000
   0.249065691   0.000934309   0.500000000
   0.249010869   0.499891076   0.000000000
   0.249010869   0.499891076   0.500000000
   0.750108924   0.000989131   0.000000000
   0.750108924   0.000989131   0.500000000
   0.751124795   0.498875205   0.000000000
   0.751124795   0.498875205   0.500000000
   0.000934309   0.249065691   0.000000000
   0.000934309   0.249065691   0.500000000
   0.000989131   0.750108924   0.000000000
   0.000989131   0.750108924   0.500000000
   0.499891076   0.249010869   0.000000000
   0.499891076   0.249010869   0.500000000
   0.498875205   0.751124795   0.000000000
   0.498875205   0.751124795   0.500000000
   0.000468368   0.000468368   0.250000000
   0.000468368   0.000468368   0.750000000
   0.000700784   0.498716794   0.250000000
   0.000700784   0.498716794   0.750000000
   0.498716794   0.000700784   0.250000000
   0.498716794   0.000700784   0.750000000
   0.499177794   0.499177794   0.250000000
   0.499177794   0.499177794   0.750000000
Mg28Ni4O32
   1.00000000
   8.499166645  -0.000870462   0.000000000
  -0.000870462   8.499166645   0.000000000
   0.000000000   0.000000000   8.497545939
  Ni  Mg  O
  4  28  32
Direct configuration=     11
   0.000386050   0.000386050   0.000000000
   0.000386050   0.000386050   0.500000000
   0.249613950   0.249613950   0.000000000
   0.249613950   0.249613950   0.500000000