Mg28Ni4O32
   1.00000000
   8.440348833   0.000000000  -0.000005109
   0.000000000   8.440335539   0.000000000
  -0.000005109   0.000000000   8.440348833
  Ni  Mg  O
  4  28  32
Direct configuration=     1
   0.000071083   0.000000000   0.000016607
   0.999928917   0.500000000   0.499983393
   0.249983393   0.000000000   0.249928917
   0.750016607   0.500000000   0.250071083
   0.000103304   0.000000000   0.499907158
   0.999896696   0.500000000   0.000092842
   0.499922413   0.000000000   0.000067636
   0.499895235   0.000000000   0.499933532
   0.500104765   0.500000000   0.000066468
   0.500077587   0.500000000   0.499932364
   0.000000000   0.250000000   0.250000000
   0.000000000   0.250000000   0.750000000
   0.000000000   0.750000000   0.250000000
   0.000000000   0.750000000   0.750000000
   0.500000000   0.250000000   0.250000000
   0.500000000   0.250000000   0.750000000
   0.500000000   0.750000000   0.250000000
   0.500000000   0.750000000   0.750000000
   0.249932364   0.000000000   0.750077587
   0.249907158   0.500000000   0.250103304
   0.249933532   0.500000000   0.749895235
   0.750092842   0.000000000   0.249896696
   0.750066468   0.000000000   0.750104765
   0.750067636   0.500000000   0.749922413
   0.249930593   0.249830356   0.000069407
   0.249944546   0.250000000   0.499944546
   0.249930593   0.750169644   0.000069407
   0.249944546   0.750000000   0.499944546
   0.750055454   0.250000000   0.000055454
   0.750069407   0.250169644   0.499930593
   0.750055454   0.750000000   0.000055454
   0.750069407   0.749830356   0.499930593
   0.249979340   0.250219558   0.249948620
   0.249973319   0.249949624   0.750007802
   0.249979340   0.749780442   0.249948620
   0.249973319   0.750050376   0.750007802
   0.750020660   0.249780442   0.250051380
   0.750026681   0.250050376   0.749992198
   0.750020660   0.750219558   0.250051380
   0.750026681   0.749949624   0.749992198
   0.250069467   0.000000000   0.999930533
   0.249877068   0.000000000   0.500119968
   0.249880812   0.500000000   0.000119188
   0.250119968   0.500000000   0.499877068
   0.749880032   0.000000000   0.000122932
   0.750119188   0.000000000   0.499880812
   0.750122932   0.500000000   0.999880032
   0.749930533   0.500000000   0.500069467
   0.000051380   0.250219558   0.000020660
   0.999948620   0.249780442   0.499979340
   0.000051380   0.749780442   0.000020660
   0.999948620   0.750219558   0.499979340
   0.499992198   0.249949624   0.000026681
   0.500007802   0.250050376   0.499973319
   0.499992198   0.750050376   0.000026681
   0.500007802   0.749949624   0.499973319
   0.999782395   0.000000000   0.250217605
   0.000048055   0.000000000   0.749770825
   0.000217605   0.500000000   0.249782395
   0.999951945   0.500000000   0.750229175
   0.500229175   0.000000000   0.249951945
   0.499941132   0.000000000   0.750058868
   0.499770825   0.500000000   0.250048055
   0.500058868   0.500000000   0.749941132
Mg28Ni4O32
   1.00000000
   8.442241508   0.000000000  -0.000033771
   0.000000000   8.442155154   0.000000000
  -0.000033771   0.000000000   8.442241508
  Ni  Mg  O
  4  28  32
Direct configuration=     2
   0.000371813   0.000000000   0.000097988
   0.999628187   0.500000000   0.499902012
   0.249902012   0.000000000   0.249628187
   0.750097988   0.500000000   0.250371813
   0.000525354   0.000000000   0.499458472
   0.999474646   0.500000000   0.000541528
   0.499595536   0.000000000   0.000397689
   0.499471340   0.000000000   0.499614293
   0.500528660   0.500000000   0.000385707
   0.500404464   0.500000000   0.499602311
   0.000000000   0.250000000   0.250000000
   0.000000000   0.250000000   0.750000000
   0.000000000   0.750000000   0.250000000
   0.000000000   0.750000000   0.750000000
   0.500000000   0.250000000   0.250000000
   0.500000000   0.250000000   0.750000000
   0.500000000   0.750000000   0.250000000
   0.500000000   0.750000000   0.750000000
   0.249602311   0.000000000   0.750404464
   0.249458472   0.500000000   0.250525354
   0.249614293   0.500000000   0.749471340
   0.750541528   0.000000000   0.249474646
   0.750385707   0.000000000   0.750528660
   0.750397689   0.500000000   0.749595536
   0.249591324   0.249132979   0.000408676
   0.249674867   0.250000000   0.499674867
   0.249591324   0.750867021   0.000408676
   0.249674867   0.750000000   0.499674867
   0.750325133   0.250000000   0.000325133
   0.750408676   0.250867021   0.499591324
   0.750325133   0.750000000   0.000325133
   0.750408676   0.749132979   0.499591324
   0.249866255   0.251151203   0.249723202
   0.249831657   0.249724855   0.750032796
   0.249866255   0.748848797   0.249723202
   0.249831657   0.750275145   0.750032796
   0.750133745   0.248848797   0.250276798
   0.750168343   0.250275145   0.749967204
   0.750133745   0.751151203   0.250276798
   0.750168343   0.749724855   0.749967204
   0.250329623   0.000000000   0.999670377
   0.249350256   0.000000000   0.500595986
   0.249379191   0.500000000   0.000620809
   0.250595986   0.500000000   0.499350256
   0.749404014   0.000000000   0.000649744
   0.750620809   0.000000000   0.499379191
   0.750649744   0.500000000   0.999404014
   0.749670377   0.500000000   0.500329623
   0.000276798   0.251151203   0.000133745
   0.999723202   0.248848797   0.499866255
   0.000276798   0.748848797   0.000133745
   0.999723202   0.751151203   0.499866255
   0.499967204   0.249724855   0.000168343
   0.500032796   0.250275145   0.499831657
   0.499967204   0.750275145   0.000168343
   0.500032796   0.749724855   0.499831657
   0.998855940   0.000000000   0.251144060
   0.000263022   0.000000000   0.748793934
   0.001144060   0.500000000   0.248855940
   0.999736978   0.500000000   0.751206066
   0.501206066   0.000000000   0.249736978
   0.499671273   0.000000000   0.750328727
   0.498793934   0.500000000   0.250263022
   0.500328727   0.500000000   0.749671273
Mg28Ni4O32
   1.00000000
   8.442794625   0.000000000  -0.000042689
   0.000000000   8.442686261   0.000000000
  -0.000042689   0.000000000   8.442794625
  Ni  Mg  O
  4  28  32
Direct configuration=     3
   0.000391222   0.000000000   0.000114278
   0.999608778   0.500000000   0.499885722
   0.249885722   0.000000000   0.249608778
   0.750114278   0.500000000   0.250391222
   0.000538116   0.000000000   0.499381774
   0.999461884   0.500000000   0.000618226
   0.499578185   0.000000000   0.000457678
   0.499460651   0.000000000   0.499559997
   0.500539349   0.500000000   0.000440003
   0.500421815   0.500000000   0.499542322
   0.000000000   0.250000000   0.250000000
   0.000000000   0.250000000   0.750000000
   0.000000000   0.750000000   0.250000000
   0.000000000   0.750000000   0.750000000
   0.500000000   0.250000000   0.250000000
   0.500000000   0.250000000   0.750000000
   0.500000000   0.750000000   0.250000000
   0.500000000   0.750000000   0.750000000
   0.249542322   0.000000000   0.750421815
   0.249381774   0.500000000   0.250538116
   0.249559997   0.500000000   0.749460651
   0.750618226   0.000000000   0.249461884
   0.750440003   0.000000000   0.750539349
   0.750457678   0.500000000   0.749578185
   0.249529446   0.249108112   0.000470554
   0.249625920   0.250000000   0.499625920
   0.249529446   0.750891888   0.000470554
   0.249625920   0.750000000   0.499625920
   0.750374080   0.250000000   0.000374080
   0.750470554   0.250891888   0.499529446
   0.750374080   0.750000000   0.000374080
   0.750470554   0.749108112   0.499529446
   0.249834065   0.251209101   0.249702791
   0.249794792   0.249701778   0.750027659
   0.249834065   0.748790899   0.249702791
   0.249794792   0.750298222   0.750027659
   0.750165935   0.248790899   0.250297209
   0.750205208   0.250298222   0.749972341
   0.750165935   0.751209101   0.250297209
   0.750205208   0.749701778   0.749972341
   0.250310308   0.000000000   0.999689692
   0.249313797   0.000000000   0.500592215
   0.249351042   0.500000000   0.000648958
   0.250592215   0.500000000   0.499313797
   0.749407785   0.000000000   0.000686203
   0.750648958   0.000000000   0.499351042
   0.750686203   0.500000000   0.999407785
   0.749689692   0.500000000   0.500310308
   0.000297209   0.251209101   0.000165935
   0.999702791   0.248790899   0.499834065
   0.000297209   0.748790899   0.000165935
   0.999702791   0.751209101   0.499834065
   0.499972341   0.249701778   0.000205208
   0.500027659   0.250298222   0.499794792
   0.499972341   0.750298222   0.000205208
   0.500027659   0.749701778   0.499794792
   0.998798040   0.000000000   0.251201960
   0.000285124   0.000000000   0.748727061
   0.001201960   0.500000000   0.248798040
   0.999714876   0.500000000   0.751272939
   0.501272939   0.000000000   0.249714876
   0.499636244   0.000000000   0.750363756
   0.498727061   0.500000000   0.250285124
   0.500363756   0.500000000   0.749636244
Mg28Ni4O32
   1.00000000
   8.452061765   0.000000000  -0.000193264
   0.000000000   8.451582875   0.000000000
  -0.000193264   0.000000000   8.452061765
  Ni  Mg  O
  4  28  32
Direct configuration=     4
   0.000541186   0.000000000   0.000354432
   0.999458814   0.500000000   0.499645568
   0.249645568   0.000000000   0.249458814
   0.750354432   0.500000000   0.250541186
   0.000502040   0.000000000   0.498308078
   0.999497960   0.500000000   0.001691922
   0.499486510   0.000000000   0.001310556
   0.499539982   0.000000000   0.498804782
   0.500460018   0.500000000   0.001195218
   0.500513490   0.500000000   0.498689444
   0.000000000   0.250000000   0.250000000
   0.000000000   0.250000000   0.750000000
   0.000000000   0.750000000   0.250000000
   0.000000000   0.750000000   0.750000000
   0.500000000   0.250000000   0.250000000
   0.500000000   0.250000000   0.750000000
   0.500000000   0.750000000   0.250000000
   0.500000000   0.750000000   0.750000000
   0.248689444   0.000000000   0.750513490
   0.248308078   0.500000000   0.250502040
   0.248804782   0.500000000   0.749539982
   0.751691922   0.000000000   0.249497960
   0.751195218   0.000000000   0.750460018
   0.751310556   0.500000000   0.749486510
   0.248652787   0.249114948   0.001347213
   0.248926866   0.250000000   0.498926866
   0.248652787   0.750885052   0.001347213
   0.248926866   0.750000000   0.498926866
   0.751073134   0.250000000   0.001073134
   0.751347213   0.250885052   0.498652787
   0.751073134   0.750000000   0.001073134
   0.751347213   0.749114948   0.498652787
   0.249316410   0.251628692   0.249487640
   0.249211995   0.249446944   0.749924602
   0.249316410   0.748371308   0.249487640
   0.249211995   0.750553056   0.749924602
   0.750683590   0.248371308   0.250512360
   0.750788005   0.250553056   0.750075398
   0.750683590   0.751628692   0.250512360
   0.750788005   0.749446944   0.750075398
   0.249759624   0.000000000   0.000240376
   0.249007072   0.000000000   0.500166545
   0.249175050   0.500000000   0.000824950
   0.250166545   0.500000000   0.499007072
   0.749833455   0.000000000   0.000992928
   0.750824950   0.000000000   0.499175050
   0.750992928   0.500000000   0.999833455
   0.750240376   0.500000000   0.499759624
   0.000512360   0.251628692   0.000683590
   0.999487640   0.248371308   0.499316410
   0.000512360   0.748371308   0.000683590
   0.999487640   0.751628692   0.499316410
   0.500075398   0.249446944   0.000788005
   0.499924602   0.250553056   0.499211995
   0.500075398   0.750553056   0.000788005
   0.499924602   0.749446944   0.499211995
   0.998383983   0.000000000   0.251616017
   0.000529196   0.000000000   0.748167494
   0.001616017   0.500000000   0.248383983
   0.999470804   0.500000000   0.751832506
   0.501832506   0.000000000   0.249470804
   0.499193665   0.000000000   0.750806335
   0.498167494   0.500000000   0.250529196
   0.500806335   0.500000000   0.749193665
Mg28Ni4O32
   1.00000000
   8.458979061   0.000000000  -0.000306177
   0.000000000   8.458220767   0.000000000
  -0.000306177   0.000000000   8.458979061
  Ni  Mg  O
  4  28  32
Direct configuration=     5
   0.000536184   0.000000000   0.000495991
   0.999463816   0.500000000   0.499504009
   0.249504009   0.000000000   0.249463816
   0.750495991   0.500000000   0.250536184
   0.000349324   0.000000000   0.497739017
   0.999650676   0.500000000   0.002260983
   0.499547168   0.000000000   0.001772408
   0.499734647   0.000000000   0.498407843
   0.500265353   0.500000000   0.001592157
   0.500452832   0.500000000   0.498227592
   0.000000000   0.250000000   0.250000000
   0.000000000   0.250000000   0.750000000
   0.000000000   0.750000000   0.250000000
   0.000000000   0.750000000   0.750000000
   0.500000000   0.250000000   0.250000000
   0.500000000   0.250000000   0.750000000
   0.500000000   0.750000000   0.250000000
   0.500000000   0.750000000   0.750000000
   0.248227592   0.000000000   0.750452832
   0.247739017   0.500000000   0.250349324
   0.248407843   0.500000000   0.749734647
   0.752260983   0.000000000   0.249650676
   0.751592157   0.000000000   0.750265353
   0.751772408   0.500000000   0.749547168
   0.248184492   0.249358911   0.001815508
   0.248540807   0.250000000   0.498540807
   0.248184492   0.750641089   0.001815508
   0.248540807   0.750000000   0.498540807
   0.751459193   0.250000000   0.001459193
   0.751815508   0.250641089   0.498184492
   0.751459193   0.750000000   0.001459193
   0.751815508   0.749358911   0.498184492
   0.248973557   0.251577432   0.249425772
   0.248834589   0.249368940   0.749852284
   0.248973557   0.748422568   0.249425772
   0.248834589   0.750631060   0.749852284
   0.751026443   0.248422568   0.250574228
   0.751165411   0.250631060   0.750147716
   0.751026443   0.751577432   0.250574228
   0.751165411   0.749368940   0.750147716
   0.249229229   0.000000000   0.000770771
   0.248982920   0.000000000   0.499621813
   0.249229608   0.500000000   0.000770392
   0.249621813   0.500000000   0.498982920
   0.750378187   0.000000000   0.001017080
   0.750770392   0.000000000   0.499229608
   0.751017080   0.500000000   0.000378187
   0.750770771   0.500000000   0.499229229
   0.000574228   0.251577432   0.001026443
   0.999425772   0.248422568   0.498973557
   0.000574228   0.748422568   0.001026443
   0.999425772   0.751577432   0.498973557
   0.500147716   0.249368940   0.001165411
   0.499852284   0.250631060   0.498834589
   0.500147716   0.750631060   0.001165411
   0.499852284   0.749368940   0.498834589
   0.998456363   0.000000000   0.251543637
   0.000602532   0.000000000   0.748122215
   0.001543637   0.500000000   0.248456363
   0.999397468   0.500000000   0.751877785
   0.501877785   0.000000000   0.249397468
   0.498994951   0.000000000   0.751005049
   0.498122215   0.500000000   0.250602532
   0.501005049   0.500000000   0.748994951
Mg28Ni4O32
   1.00000000
   8.466669798   0.000000000  -0.000431750
   0.000000000   8.465595424   0.000000000
  -0.000431750   0.000000000   8.466669798
  Ni  Mg  O
  4  28  32
Direct configuration=     6
   0.000451611   0.000000000   0.000601366
   0.999548389   0.500000000   0.499398634
   0.249398634   0.000000000   0.249548389
   0.750601366   0.500000000   0.250451611
   0.000157871   0.000000000   0.497411355
   0.999842129   0.500000000   0.002588645
   0.499696274   0.000000000   0.002047577
   0.499984842   0.000000000   0.498183446
   0.500015158   0.500000000   0.001816554
   0.500303726   0.500000000   0.497952423
   0.000000000   0.250000000   0.250000000
   1.000000000   0.250000000   0.750000000
   0.000000000   0.750000000   0.250000000
   1.000000000   0.750000000   0.750000000
   0.500000000   0.250000000   0.250000000
   0.500000000   0.250000000   0.750000000
   0.500000000   0.750000000   0.250000000
   0.500000000   0.750000000   0.750000000
   0.247952423   0.000000000   0.750303726
   0.247411355   0.500000000   0.250157871
   0.248183446   0.500000000   0.749984842
   0.752588645   0.000000000   0.249842129
   0.751816554   0.000000000   0.750015158
   0.752047577   0.500000000   0.749696274
   0.247919283   0.249723177   0.002080717
   0.248294956   0.250000000   0.498294956
   0.247919283   0.750276823   0.002080717
   0.248294956   0.750000000   0.498294956
   0.751705044   0.250000000   0.001705044
   0.752080717   0.250276823   0.497919283
   0.751705044   0.750000000   0.001705044
   0.752080717   0.749723177   0.497919283
   0.248678128   0.251279851   0.249446668
   0.248519926   0.249393034   0.749799255
   0.248678128   0.748720149   0.249446668
   0.248519926   0.750606966   0.749799255
   0.751321872   0.248720149   0.250553332
   0.751480074   0.250606966   0.750200745
   0.751321872   0.751279851   0.250553332
   0.751480074   0.749393034   0.750200745
   0.248624939   0.000000000   0.001375061
   0.249099886   0.000000000   0.498903096
   0.249397640   0.500000000   0.000602360
   0.248903096   0.500000000   0.499099886
   0.751096904   0.000000000   0.000900114
   0.750602360   0.000000000   0.499397640
   0.750900114   0.500000000   0.001096904
   0.751375061   0.500000000   0.498624939
   0.000553332   0.251279851   0.001321872
   0.999446668   0.248720149   0.498678128
   0.000553332   0.748720149   0.001321872
   0.999446668   0.751279851   0.498678128
   0.500200745   0.249393034   0.001480074
   0.499799255   0.250606966   0.498519926
   0.500200745   0.750606966   0.001480074
   0.499799255   0.749393034   0.498519926
   0.998805843   0.000000000   0.251194157
   0.000576195   0.000000000   0.748324057
   0.001194157   0.500000000   0.248805843
   0.999423805   0.500000000   0.751675943
   0.501675943   0.000000000   0.249423805
   0.498919284   0.000000000   0.751080716
   0.498324057   0.500000000   0.250576195
   0.501080716   0.500000000   0.748919284
Mg28Ni4O32
   1.00000000
   8.472583118   0.000000000  -0.000527948
   0.000000000   8.471258938   0.000000000
  -0.000527948   0.000000000   8.472583118
  Ni  Mg  O
  4  28  32
Direct configuration=     7
   0.000367185   0.000000000   0.000627434
   0.999632815   0.500000000   0.499372566
   0.249372566   0.000000000   0.249632815
   0.750627434   0.500000000   0.250367185
   0.000094578   0.000000000   0.497464030
   0.999905422   0.500000000   0.002535970
   0.499824664   0.000000000   0.002013240
   0.500101048   0.000000000   0.498228057
   0.499898952   0.500000000   0.001771943
   0.500175336   0.500000000   0.497986760
   0.000000000   0.250000000   0.250000000
   1.000000000   0.250000000   0.750000000
   0.000000000   0.750000000   0.250000000
   1.000000000   0.750000000   0.750000000
   0.500000000   0.250000000   0.250000000
   0.500000000   0.250000000   0.750000000
   0.500000000   0.750000000   0.250000000
   0.500000000   0.750000000   0.750000000
   0.247986760   0.000000000   0.750175336
   0.247464030   0.500000000   0.250094578
   0.248228057   0.500000000   0.750101048
   0.752535970   0.000000000   0.249905422
   0.751771943   0.000000000   0.749898952
   0.752013240   0.500000000   0.749824664
   0.247980189   0.249928354   0.002019811
   0.248296062   0.250000000   0.498296062
   0.247980189   0.750071646   0.002019811
   0.248296062   0.750000000   0.498296062
   0.751703938   0.250000000   0.001703938
   0.752019811   0.250071646   0.497980189
   0.751703938   0.750000000   0.001703938
   0.752019811   0.749928354   0.497980189
   0.248571002   0.250995935   0.249520378
   0.248419179   0.249488153   0.749801349
   0.248571002   0.749004065   0.249520378
   0.248419179   0.750511847   0.749801349
   0.751428998   0.249004065   0.250479622
   0.751580821   0.250511847   0.750198651
   0.751428998   0.750995935   0.250479622
   0.751580821   0.749488153   0.750198651
   0.248274546   1.000000000   0.001725454
   0.249241185   0.000000000   0.498404606
   0.249529135   0.500000000   0.000470865
   0.248404606   0.500000000   0.499241185
   0.751595394   0.000000000   0.000758815
   0.750470865   0.000000000   0.499529135
   0.750758815   0.500000000   0.001595394
   0.751725454   0.500000000   0.498274546
   0.000479622   0.250995935   0.001428998
   0.999520378   0.249004065   0.498571002
   0.000479622   0.749004065   0.001428998
   0.999520378   0.750995935   0.498571002
   0.500198651   0.249488153   0.001580821
   0.499801349   0.250511847   0.498419179
   0.500198651   0.750511847   0.001580821
   0.499801349   0.749488153   0.498419179
   0.999156462   0.000000000   0.250843538
   0.000483644   0.000000000   0.748550754
   0.000843538   0.500000000   0.249156462
   0.999516356   0.500000000   0.751449246
   0.501449246   1.000000000   0.249516356
   0.498984336   0.000000000   0.751015664
   0.498550754   0.500000000   0.250483644
   0.501015664   0.500000000   0.748984336
Mg28Ni4O32
   1.00000000
   8.481093145   0.000000000  -0.000665836
   0.000000000   8.479400994   0.000000000
  -0.000665836   0.000000000   8.481093145
  Ni  Mg  O
  4  28  32
Direct configuration=     8
   0.000285701   1.000000000   0.000606462
   0.999714299   0.500000000   0.499393538
   0.249393538   1.000000000   0.249714299
   0.750606462   0.500000000   0.250285701
   0.000176657   0.000000000   0.497848386
   0.999823343   0.500000000   0.002151614
   0.499956307   1.000000000   0.001709019
   0.500092081   0.000000000   0.498509618
   0.499907919   0.500000000   0.001490382
   0.500043693   0.500000000   0.498290981
   0.000000000   0.250000000   0.250000000
   1.000000000   0.250000000   0.750000000
   0.000000000   0.750000000   0.250000000
   1.000000000   0.750000000   0.750000000
   0.500000000   0.250000000   0.250000000
   0.500000000   0.250000000   0.750000000
   0.500000000   0.750000000   0.250000000
   0.500000000   0.750000000   0.750000000
   0.248290981   1.000000000   0.750043693
   0.247848386   0.500000000   0.250176657
   0.248509618   0.500000000   0.750092081
   0.752151614   0.000000000   0.249823343
   0.751490382   0.000000000   0.749907919
   0.751709019   0.500000000   0.749956307
   0.248342210   0.249994361   0.001657790
   0.248498301   0.250000000   0.498498301
   0.248342210   0.750005639   0.001657790
   0.248498301   0.750000000   0.498498301
   0.751501699   0.250000000   0.001501699
   0.751657790   0.250005639   0.498342210
   0.751501699   0.750000000   0.001501699
   0.751657790   0.749994361   0.498342210
   0.248589555   0.250710580   0.249652862
   0.248472020   0.249658940   0.749859294
   0.248589555   0.749289420   0.249652862
   0.248472020   0.750341060   0.749859294
   0.751410445   0.249289420   0.250347138
   0.751527980   0.250341060   0.750140706
   0.751410445   0.750710580   0.250347138
   0.751527980   0.749658940   0.750140706
   0.248041321   1.000000000   0.001958679
   0.249414474   0.000000000   0.497941981
   0.249623001   0.500000000   0.000376999
   0.247941981   0.500000000   0.499414474
   0.752058019   1.000000000   0.000585526
   0.750376999   0.000000000   0.499623001
   0.750585526   0.500000000   0.002058019
   0.751958679   0.500000000   0.498041321
   0.000347138   0.250710580   0.001410445
   0.999652862   0.249289420   0.498589555
   0.000347138   0.749289420   0.001410445
   0.999652862   0.750710580   0.498589555
   0.500140706   0.249658940   0.001527980
   0.499859294   0.250341060   0.498472020
   0.500140706   0.750341060   0.001527980
   0.499859294   0.749658940   0.498472020
   0.999557328   1.000000000   0.250442672
   0.000324449   0.000000000   0.748778635
   0.000442672   0.500000000   0.249557328
   0.999675551   0.500000000   0.751221365
   0.501221365   1.000000000   0.249675551
   0.499177058   1.000000000   0.750822942
   0.498778635   0.500000000   0.250324449
   0.500822942   0.500000000   0.749177058
Mg28Ni4O32
   1.00000000
   8.490152309   0.000000000  -0.000812455
   0.000000000   8.488059613   0.000000000
  -0.000812455   0.000000000   8.490152309
  Ni  Mg  O
  4  28  32
Direct configuration=     9
   0.000279264   1.000000000   0.000539148
   0.999720736   0.500000000   0.499460852
   0.249460852   1.000000000   0.249720736
   0.750539148   0.500000000   0.250279264
   0.000439828   0.000000000   0.498479429
   0.999560172   0.500000000   0.001520571
   0.499999280   1.000000000   0.001199895
   0.499886535   0.000000000   0.498956043
   0.500113465   0.500000000   0.001043957
   0.500000720   0.500000000   0.498800105
   0.000000000   0.250000000   0.250000000
   1.000000000   0.250000000   0.750000000
   0.000000000   0.750000000   0.250000000
   1.000000000   0.750000000   0.750000000
   0.500000000   0.250000000   0.250000000
   0.500000000   0.250000000   0.750000000
   0.500000000   0.750000000   0.250000000
   0.500000000   0.750000000   0.750000000
   0.248800105   1.000000000   0.750000720
   0.248479429   0.500000000   0.250439828
   0.248956043   0.500000000   0.749886535
   0.751520571   1.000000000   0.249560172
   0.751043957   1.000000000   0.750113465
   0.751199895   0.500000000   0.749999280
   0.248923465   0.249786863   0.001076535
   0.248865956   0.250000000   0.498865956
   0.248923465   0.750213137   0.001076535
   0.248865956   0.750000000   0.498865956
   0.751134044   0.250000000   0.001134044
   0.751076535   0.250213137   0.498923465
   0.751134044   0.750000000   0.001134044
   0.751076535   0.749786863   0.498923465
   0.248801185   0.250642909   0.249784950
   0.248742845   0.249813479   0.749963371
   0.248801185   0.749357091   0.249784950
   0.248742845   0.750186521   0.749963371
   0.751198815   0.249357091   0.250215050
   0.751257155   0.250186521   0.750036629
   0.751198815   0.750642909   0.250215050
   0.751257155   0.749813479   0.750036629
   0.248162681   1.000000000   0.001837319
   0.249518514   1.000000000   0.497855513
   0.249579909   0.500000000   0.000420091
   0.247855513   0.500000000   0.499518514
   0.752144487   1.000000000   0.000481486
   0.750420091   0.000000000   0.499579909
   0.750481486   0.500000000   0.002144487
   0.751837319   0.500000000   0.498162681
   0.000215050   0.250642909   0.001198815
   0.999784950   0.249357091   0.498801185
   0.000215050   0.749357091   0.001198815
   0.999784950   0.750642909   0.498801185
   0.500036629   0.249813479   0.001257155
   0.499963371   0.250186521   0.498742845
   0.500036629   0.750186521   0.001257155
   0.499963371   0.749813479   0.498742845
   0.999747556   1.000000000   0.250252444
   0.000192689   1.000000000   0.748816085
   0.000252444   0.500000000   0.249747556
   0.999807311   0.500000000   0.751183915
   0.501183915   1.000000000   0.249807311
   0.499424298   1.000000000   0.750575702
   0.498816085   0.500000000   0.250192689
   0.500575702   0.500000000   0.749424298
Mg28Ni4O32
   1.00000000
   8.496525890   0.000000000  -0.000916506
   0.000000000   8.494141512   0.000000000
  -0.000916506   0.000000000   8.496525890
  Ni  Mg  O
  4  28  32
Direct configuration=     10
   0.000358863   1.000000000   0.000461865
   0.999641137   0.500000000   0.499538135
   0.249538135   1.000000000   0.249641137
   0.750461865   0.500000000   0.250358863
   0.000729880   0.000000000   0.499043017
   0.999270120   0.500000000   0.000956983
   0.499926687   1.000000000   0.000741246
   0.499600158   0.000000000   0.499332291
   0.500399842   0.500000000   0.000667709
   0.500073313   0.500000000   0.499258754
   0.000000000   0.250000000   0.250000000
   1.000000000   0.250000000   0.750000000
   0.000000000   0.750000000   0.250000000
   1.000000000   0.750000000   0.750000000
   0.500000000   0.250000000   0.250000000
   0.500000000   0.250000000   0.750000000
   0.500000000   0.750000000   0.250000000
   0.500000000   0.750000000   0.750000000
   0.249258754   1.000000000   0.750073313
   0.249043017   0.500000000   0.250729880
   0.249332291   0.500000000   0.749600158
   0.750956983   1.000000000   0.249270120
   0.750667709   1.000000000   0.750399842
   0.750741246   0.500000000   0.749926687
   0.249428825   0.249423152   0.000571175
   0.249217191   0.250000000   0.499217191
   0.249428825   0.750576848   0.000571175
   0.249217191   0.750000000   0.499217191
   0.750782809   0.250000000   0.000782809
   0.750571175   0.250576848   0.499428825
   0.750782809   0.750000000   0.000782809
   0.750571175   0.749423152   0.499428825
   0.249139586   0.250833253   0.249849186
   0.249139807   0.249848527   0.750051835
   0.249139586   0.749166747   0.249849186
   0.249139807   0.750151473   0.750051835
   0.750860414   0.249166747   0.250150814
   0.750860193   0.250151473   0.749948165
   0.750860414   0.750833253   0.250150814
   0.750860193   0.749848527   0.749948165
   0.248645831   1.000000000   0.001354169
   0.249514735   1.000000000   0.498264002
   0.249424525   0.500000000   0.000575475
   0.248264002   0.500000000   0.499514735
   0.751735998   1.000000000   0.000485265
   0.750575475   1.000000000   0.499424525
   0.750485265   0.500000000   0.001735998
   0.751354169   0.500000000   0.498645831
   0.000150814   0.250833253   0.000860414
   0.999849186   0.249166747   0.499139586
   0.000150814   0.749166747   0.000860414
   0.999849186   0.750833253   0.499139586
   0.499948165   0.249848527   0.000860193
   0.500051835   0.250151473   0.499139807
   0.499948165   0.750151473   0.000860193
   0.500051835   0.749848527   0.499139807
   0.999619101   1.000000000   0.250380899
   0.000184635   1.000000000   0.748642513
   0.000380899   0.500000000   0.249619101
   0.999815365   0.500000000   0.751357487
   0.501357487   1.000000000   0.249815365
   0.499589079   1.000000000   0.750410921
   0.498642513   0.500000000   0.250184635
   0.500410921   0.500000000   0.749589079
Mg28Ni4O32
   1.00000000
   8.498647255   0.000000000  -0.000953452
   0.000000000   8.496154882   0.000000000
  -0.000953452   0.000000000   8.498647255
  Ni  Mg  O
  4  28  32
Direct configuration=     11
   0.000443129   1.000000000   0.000417978
   0.999556871   0.500000000   0.499582022
   0.249582022   1.000000000   0.249556871
   0.750417978   0.500000000   0.250443129