Mg28Ni4O32
   1.00000000
   8.440356413   0.000000326  -0.000000000
   0.000000326   8.440356413   0.000000000
  -0.000000000   0.000000000   8.440338226
  Ni  Mg  O
  4  28  32
Direct configuration=     1
   0.000066285   0.000066285   0.000000000
   0.000066285   0.000066285   0.500000000
   0.999951626   0.249904962   0.250000000
   0.249904962   0.999951626   0.750000000
   0.999980750   0.499905076   0.000102444
   0.999980750   0.499905076   0.499897556
   0.499905076   0.999980750   0.999897556
   0.499905076   0.999980750   0.500102444
   0.500036071   0.500036071   0.000000000
   0.500036071   0.500036071   0.500000000
   0.000094249   0.249706856   0.750000000
   0.999988346   0.750156325   0.250000000
   0.000068102   0.750306481   0.750000000
   0.500007408   0.249989633   0.250000000
   0.499942581   0.249978555   0.750000000
   0.500007502   0.749974538   0.250000000
   0.499950491   0.750026508   0.750000000
   0.249706856   0.000094249   0.250000000
   0.249978555   0.499942581   0.250000000
   0.249989633   0.500007408   0.750000000
   0.750306481   0.000068102   0.250000000
   0.750156325   0.999988346   0.750000000
   0.750026508   0.499950491   0.250000000
   0.749974538   0.500007502   0.750000000
   0.249829610   0.249829610   0.000000000
   0.249829610   0.249829610   0.500000000
   0.249939493   0.750172970   0.999915185
   0.249939493   0.750172970   0.500084815
   0.750172970   0.249939493   0.000084815
   0.750172970   0.249939493   0.499915185
   0.750047070   0.750047070   0.000000000
   0.750047070   0.750047070   0.500000000
   0.250115296   0.249868337   0.250000000
   0.249868337   0.250115296   0.750000000
   0.249925543   0.750044706   0.250000000
   0.249888638   0.749906278   0.750000000
   0.749906278   0.249888638   0.250000000
   0.750044706   0.249925543   0.750000000
   0.750069934   0.750027356   0.250000000
   0.750027356   0.750069934   0.750000000
   0.250013738   0.000015042   0.000105832
   0.250013738   0.000015042   0.499894168
   0.249902997   0.500001945   0.999924680
   0.249902997   0.500001945   0.500075320
   0.749929669   0.000046961   0.999990111
   0.749929669   0.000046961   0.500009889
   0.750090144   0.499990135   0.000003397
   0.750090144   0.499990135   0.499996603
   0.000015042   0.250013738   0.999894168
   0.000015042   0.250013738   0.500105832
   0.000046961   0.749929669   0.000009889
   0.000046961   0.749929669   0.499990111
   0.500001945   0.249902997   0.000075320
   0.500001945   0.249902997   0.499924680
   0.499990135   0.750090144   0.999996603
   0.499990135   0.750090144   0.500003397
   0.000035256   0.999989615   0.250000000
   0.999989615   0.000035256   0.750000000
   0.000018905   0.500144637   0.250000000
   0.000093719   0.499967752   0.750000000
   0.499967752   0.000093719   0.250000000
   0.500144637   0.000018905   0.750000000
   0.499994146   0.499919805   0.250000000
   0.499919805   0.499994146   0.750000000
Mg28Ni4O32
   1.00000000
   8.442677743   0.000002584  -0.000000000
   0.000002584   8.442677743   0.000000000
  -0.000000000   0.000000000   8.442542652
  Ni  Mg  O
  4  28  32
Direct configuration=     2
   0.000411788   0.000411788   0.000000000
   0.000411788   0.000411788   0.500000000
   0.999691096   0.249406369   0.250000000
   0.249406369   0.999691096   0.750000000
   0.999919770   0.499403172   0.000609960
   0.999919770   0.499403172   0.499390040
   0.499403172   0.999919770   0.999390040
   0.499403172   0.999919770   0.500609960
   0.500192139   0.500192139   0.000000000
   0.500192139   0.500192139   0.500000000
   0.000621313   0.248112221   0.750000000
   0.999958961   0.751002969   0.250000000
   0.000447067   0.751958821   0.750000000
   0.500028799   0.249803506   0.250000000
   0.499634820   0.249836106   0.750000000
   0.500014131   0.749957088   0.250000000
   0.499682654   0.750202799   0.750000000
   0.248112221   0.000621313   0.250000000
   0.249836106   0.499634820   0.250000000
   0.249803506   0.500028799   0.750000000
   0.751958821   0.000447067   0.250000000
   0.751002969   0.999958961   0.750000000
   0.750202799   0.499682654   0.250000000
   0.749957088   0.500014131   0.750000000
   0.248890701   0.248890701   0.000000000
   0.248890701   0.248890701   0.500000000
   0.249550831   0.751120942   0.999472956
   0.249550831   0.751120942   0.500527044
   0.751120942   0.249550831   0.000527044
   0.751120942   0.249550831   0.499472956
   0.750352895   0.750352895   0.000000000
   0.750352895   0.750352895   0.500000000
   0.250641037   0.249125302   0.250000000
   0.249125302   0.250641037   0.750000000
   0.249500720   0.750321163   0.250000000
   0.249272572   0.749501742   0.750000000
   0.749501742   0.249272572   0.250000000
   0.750321163   0.249500720   0.750000000
   0.750479408   0.750194911   0.250000000
   0.750194911   0.750479408   0.750000000
   0.250015711   0.000102613   0.000644252
   0.250015711   0.000102613   0.499355748
   0.249385619   0.499994022   0.999548781
   0.249385619   0.499994022   0.500451219
   0.749634104   0.000304677   0.999945938
   0.749634104   0.000304677   0.500054062
   0.750578398   0.499922371   0.000049291
   0.750578398   0.499922371   0.499950709
   0.000102613   0.250015711   0.999355748
   0.000102613   0.250015711   0.500644252
   0.000304677   0.749634104   0.000054062
   0.000304677   0.749634104   0.499945938
   0.499994022   0.249385619   0.000451219
   0.499994022   0.249385619   0.499548781
   0.499922371   0.750578398   0.999950709
   0.499922371   0.750578398   0.500049291
   0.000223731   0.999998107   0.250000000
   0.999998107   0.000223731   0.750000000
   0.000107966   0.500874507   0.250000000
   0.000569429   0.499787247   0.750000000
   0.499787247   0.000569429   0.250000000
   0.500874507   0.000107966   0.750000000
   0.499983356   0.499500577   0.250000000
   0.499500577   0.499983356   0.750000000
Mg28Ni4O32
   1.00000000
   8.443371981   0.000003360  -0.000000000
   0.000003360   8.443371981   0.000000000
  -0.000000000   0.000000000   8.443202364
  Ni  Mg  O
  4  28  32
Direct configuration=     3
   0.000442544   0.000442544   0.000000000
   0.000442544   0.000442544   0.500000000
   0.999659735   0.249359781   0.250000000
   0.249359781   0.999659735   0.750000000
   0.999949830   0.499353596   0.000631677
   0.999949830   0.499353596   0.499368323
   0.499353596   0.999949830   0.999368323
   0.499353596   0.999949830   0.500631677
   0.500177586   0.500177586   0.000000000
   0.500177586   0.500177586   0.500000000
   0.000697866   0.247909579   0.750000000
   0.999985170   0.751102622   0.250000000
   0.000498560   0.752157606   0.750000000
   0.500014583   0.249667355   0.250000000
   0.499599203   0.249797919   0.750000000
   0.499984691   0.750061077   0.250000000
   0.499651477   0.750251307   0.750000000
   0.247909579   0.000697866   0.250000000
   0.249797919   0.499599203   0.250000000
   0.249667355   0.500014583   0.750000000
   0.752157606   0.000498560   0.250000000
   0.751102622   0.999985170   0.750000000
   0.750251307   0.499651477   0.250000000
   0.750061077   0.499984691   0.750000000
   0.248762077   0.248762077   0.000000000
   0.248762077   0.248762077   0.500000000
   0.249451262   0.751246718   0.999435375
   0.249451262   0.751246718   0.500564625
   0.751246718   0.249451262   0.000564625
   0.751246718   0.249451262   0.499435375
   0.750434452   0.750434452   0.000000000
   0.750434452   0.750434452   0.500000000
   0.250614959   0.249011066   0.250000000
   0.249011066   0.250614959   0.750000000
   0.249427474   0.750388905   0.250000000
   0.249184147   0.749545555   0.750000000
   0.749545555   0.249184147   0.250000000
   0.750388905   0.249427474   0.750000000
   0.750558639   0.750239343   0.250000000
   0.750239343   0.750558639   0.750000000
   0.249950555   0.000118606   0.000679202
   0.249950555   0.000118606   0.499320798
   0.249325845   0.499975189   0.999532746
   0.249325845   0.499975189   0.500467254
   0.749675490   0.000338731   0.999949794
   0.749675490   0.000338731   0.500050206
   0.750641494   0.499899628   0.000077567
   0.750641494   0.499899628   0.499922433
   0.000118606   0.249950555   0.999320798
   0.000118606   0.249950555   0.500679202
   0.000338731   0.749675490   0.000050206
   0.000338731   0.749675490   0.499949794
   0.499975189   0.249325845   0.000467254
   0.499975189   0.249325845   0.499532746
   0.499899628   0.750641494   0.999922433
   0.499899628   0.750641494   0.500077567
   0.000241983   0.000058632   0.250000000
   0.000058632   0.000241983   0.750000000
   0.000110117   0.500917140   0.250000000
   0.000597862   0.499758916   0.750000000
   0.499758916   0.000597862   0.250000000
   0.500917140   0.000110117   0.750000000
   0.499997696   0.499461829   0.250000000
   0.499461829   0.499997696   0.750000000
Mg28Ni4O32
   1.00000000
   8.449510847   0.000010416   0.000000000
   0.000010416   8.449510847  -0.000000000
   0.000000000  -0.000000000   8.449036194
  Ni  Mg  O
  4  28  32
Direct configuration=     4
   0.000562366   0.000562366   1.000000000
   0.000562366   0.000562366   0.500000000
   0.999487662   0.249176765   0.250000000
   0.249176765   0.999487662   0.750000000
   0.000275860   0.499132260   0.000577483
   0.000275860   0.499132260   0.499422517
   0.499132260   0.000275860   0.999422517
   0.499132260   0.000275860   0.500577483
   0.499950022   0.499950022   0.000000000
   0.499950022   0.499950022   0.500000000
   0.001171474   0.246733891   0.750000000
   0.000262500   0.751630120   0.250000000
   0.000792240   0.753258154   0.750000000
   0.499859685   0.248411539   0.250000000
   0.499408301   0.249509240   0.750000000
   0.499684839   0.751115302   0.250000000
   0.499493878   0.750628880   0.750000000
   0.246733891   0.001171474   0.250000000
   0.249509240   0.499408301   0.250000000
   0.248411539   0.499859685   0.750000000
   0.753258154   0.000792240   0.250000000
   0.751630120   0.000262500   0.750000000
   0.750628880   0.499493878   0.250000000
   0.751115302   0.499684839   0.750000000
   0.247984957   0.247984957   0.000000000
   0.247984957   0.247984957   0.500000000
   0.248675183   0.751990060   0.999307098
   0.248675183   0.751990060   0.500692902
   0.751990060   0.248675183   0.000692902
   0.751990060   0.248675183   0.499307098
   0.751078588   0.751078588   0.000000000
   0.751078588   0.751078588   0.500000000
   0.250049143   0.248275484   0.250000000
   0.248275484   0.250049143   0.750000000
   0.248909445   0.750934886   0.250000000
   0.248617426   0.750212990   0.750000000
   0.750212990   0.248617426   0.250000000
   0.750934886   0.248909445   0.750000000
   0.751143041   0.750629011   0.250000000
   0.750629011   0.751143041   0.750000000
   0.249291757   0.000233540   0.000736990
   0.249291757   0.000233540   0.499263010
   0.248985231   0.499783182   0.999579944
   0.248985231   0.499783182   0.500420056
   0.750263378   0.000540858   0.000015434
   0.750263378   0.000540858   0.499984566
   0.751031018   0.499699348   0.000326311
   0.751031018   0.499699348   0.499673689
   0.000233540   0.249291757   0.999263010
   0.000233540   0.249291757   0.500736990
   0.000540858   0.750263378   0.999984566
   0.000540858   0.750263378   0.500015434
   0.499783182   0.248985231   0.000420056
   0.499783182   0.248985231   0.499579944
   0.499699348   0.751031018   0.999673689
   0.499699348   0.751031018   0.500326311
   0.000315531   0.000667108   0.250000000
   0.000667108   0.000315531   0.750000000
   0.000101991   0.500941270   0.250000000
   0.000624523   0.499573360   0.750000000
   0.499573360   0.000624523   0.250000000
   0.500941270   0.000101991   0.750000000
   0.500130863   0.499294242   0.250000000
   0.499294242   0.500130863   0.750000000
Mg28Ni4O32
   1.00000000
   8.452976858   0.000014529   0.000000000
   0.000014529   8.452976858  -0.000000000
   0.000000000  -0.000000000   8.452328236
  Ni  Mg  O
  4  28  32
Direct configuration=     5
   0.000536610   0.000536610   1.000000000
   0.000536610   0.000536610   0.500000000
   0.999465169   0.249229340   0.250000000
   0.249229340   0.999465169   0.750000000
   0.000449899   0.499145103   0.000427162
   0.000449899   0.499145103   0.499572838
   0.499145103   0.000449899   0.999572838
   0.499145103   0.000449899   0.500427162
   0.499793017   0.499793017   0.000000000
   0.499793017   0.499793017   0.500000000
   0.001276732   0.246495567   0.750000000
   0.000413899   0.751679388   0.250000000
   0.000825683   0.753433319   0.750000000
   0.499769837   0.247805026   0.250000000
   0.499382742   0.249417562   0.750000000
   0.499520328   0.751685064   0.250000000
   0.499492514   0.750765095   0.750000000
   0.246495567   0.001276732   0.250000000
   0.249417562   0.499382742   0.250000000
   0.247805026   0.499769837   0.750000000
   0.753433319   0.000825683   0.250000000
   0.751679388   0.000413899   0.750000000
   0.750765095   0.499492514   0.250000000
   0.751685064   0.499520328   0.750000000
   0.247813630   0.247813630   0.000000000
   0.247813630   0.247813630   0.500000000
   0.248379368   0.752141861   0.999363659
   0.248379368   0.752141861   0.500636341
   0.752141861   0.248379368   0.000636341
   0.752141861   0.248379368   0.499363659
   0.751332985   0.751332985   0.000000000
   0.751332985   0.751332985   0.500000000
   0.249587726   0.248084232   0.250000000
   0.248084232   0.249587726   0.750000000
   0.248720195   0.751181798   0.250000000
   0.248451439   0.750679676   0.750000000
   0.750679676   0.248451439   0.250000000
   0.751181798   0.248720195   0.750000000
   0.751369463   0.750847402   0.250000000
   0.750847402   0.751369463   0.750000000
   0.248936935   0.000274947   0.000632554
   0.248936935   0.000274947   0.499367446
   0.248900784   0.499671455   0.999704358
   0.248900784   0.499671455   0.500295642
   0.750669083   0.000582435   0.000064749
   0.750669083   0.000582435   0.499935251
   0.751149049   0.499596415   0.000430632
   0.751149049   0.499596415   0.499569368
   0.000274947   0.248936935   0.999367446
   0.000274947   0.248936935   0.500632554
   0.000582435   0.750669083   0.999935251
   0.000582435   0.750669083   0.500064749
   0.499671455   0.248900784   0.000295642
   0.499671455   0.248900784   0.499704358
   0.499596415   0.751149049   0.999569368
   0.499596415   0.751149049   0.500430632
   0.000295681   0.000995005   0.250000000
   0.000995005   0.000295681   0.750000000
   0.000104458   0.500758904   0.250000000
   0.000519160   0.499520776   0.750000000
   0.499520776   0.000519160   0.250000000
   0.500758904   0.000104458   0.750000000
   0.500178802   0.499300871   0.250000000
   0.499300871   0.500178802   0.750000000
Mg28Ni4O32
   1.00000000
   8.457267233   0.000019725   0.000000000
   0.000019725   8.457267233  -0.000000000
   0.000000000  -0.000000000   8.456399069
  Ni  Mg  O
  4  28  32
Direct configuration=     6
   0.000451727   0.000451727   1.000000000
   0.000451727   0.000451727   0.500000000
   0.999497303   0.249407102   0.250000000
   0.249407102   0.999497303   0.750000000
   0.000585244   0.499249735   0.000221351
   0.000585244   0.499249735   0.499778649
   0.499249735   0.000585244   0.999778649
   0.499249735   0.000585244   0.500221351
   0.499633336   0.499633336   0.000000000
   0.499633336   0.499633336   0.500000000
   0.001254740   0.246531477   0.750000000
   0.000543740   0.751545200   0.250000000
   0.000741953   0.753312858   0.750000000
   0.499682901   0.247333182   0.250000000
   0.499410070   0.249408407   0.750000000
   0.499367666   0.752194856   0.250000000
   0.499564363   0.750817565   0.750000000
   0.246531477   0.001254740   0.250000000
   0.249408407   0.499410070   0.250000000
   0.247333182   0.499682901   0.750000000
   0.753312858   0.000741953   0.250000000
   0.751545200   0.000543740   0.750000000
   0.750817565   0.499564363   0.250000000
   0.752194856   0.499367666   0.750000000
   0.247834771   0.247834771   0.000000000
   0.247834771   0.247834771   0.500000000
   0.248222174   0.752102897   0.999512643
   0.248222174   0.752102897   0.500487357
   0.752102897   0.248222174   0.000487357
   0.752102897   0.248222174   0.499512643
   0.751483233   0.751483233   0.000000000
   0.751483233   0.751483233   0.500000000
   0.249046412   0.248069734   0.250000000
   0.248069734   0.249046412   0.750000000
   0.248591905   0.751395680   0.250000000
   0.248381179   0.751168780   0.750000000
   0.751168780   0.248381179   0.250000000
   0.751395680   0.248591905   0.750000000
   0.751528210   0.751100840   0.250000000
   0.751100840   0.751528210   0.750000000
   0.248622444   0.000299485   0.000451677
   0.248622444   0.000299485   0.499548323
   0.248856509   0.499555857   0.999883693
   0.248856509   0.499555857   0.500116307
   0.751104375   0.000571115   0.000118278
   0.751104375   0.000571115   0.499881722
   0.751226680   0.499496125   0.000483031
   0.751226680   0.499496125   0.499516969
   0.000299485   0.248622444   0.999548323
   0.000299485   0.248622444   0.500451677
   0.000571115   0.751104375   0.999881722
   0.000571115   0.751104375   0.500118278
   0.499555857   0.248856509   0.000116307
   0.499555857   0.248856509   0.499883693
   0.499496125   0.751226680   0.999516969
   0.499496125   0.751226680   0.500483031
   0.000226430   0.001288868   0.250000000
   0.001288868   0.000226430   0.750000000
   0.000143042   0.500456333   0.250000000
   0.000349744   0.499507243   0.750000000
   0.499507243   0.000349744   0.250000000
   0.500456333   0.000143042   0.750000000
   0.500177047   0.499363755   0.250000000
   0.499363755   0.500177047   0.750000000
Mg28Ni4O32
   1.00000000
   8.462526906   0.000026168   0.000000000
   0.000026168   8.462526906  -0.000000000
   0.000000000  -0.000000000   8.461383773
  Ni  Mg  O
  4  28  32
Direct configuration=     7
   0.000356875   0.000356875   0.000000000
   0.000356875   0.000356875   0.500000000
   0.999560867   0.249649215   0.250000000
   0.249649215   0.999560867   0.750000000
   0.000623599   0.499386870   0.000062234
   0.000623599   0.499386870   0.499937766
   0.499386870   0.000623599   0.999937766
   0.499386870   0.000623599   0.500062234
   0.499529386   0.499529386   0.000000000
   0.499529386   0.499529386   0.500000000
   0.001137258   0.246710788   0.750000000
   0.000606041   0.751305191   0.250000000
   0.000569575   0.753041648   0.750000000
   0.499623806   0.247139704   0.250000000
   0.499460454   0.249498399   0.750000000
   0.499267996   0.752494579   0.250000000
   0.499684430   0.750763063   0.750000000
   0.246710788   0.001137258   0.250000000
   0.249498399   0.499460454   0.250000000
   0.247139704   0.499623806   0.750000000
   0.753041648   0.000569575   0.250000000
   0.751305191   0.000606041   0.750000000
   0.750763063   0.499684430   0.250000000
   0.752494579   0.499267996   0.750000000
   0.247986787   0.247986787   1.000000000
   0.247986787   0.247986787   0.500000000
   0.248243349   0.751939171   0.999691648
   0.248243349   0.751939171   0.500308352
   0.751939171   0.248243349   0.000308352
   0.751939171   0.248243349   0.499691648
   0.751493666   0.751493666   0.000000000
   0.751493666   0.751493666   0.500000000
   0.248602755   0.248205713   0.250000000
   0.248205713   0.248602755   0.750000000
   0.248521021   0.751548403   0.250000000
   0.248382150   0.751503311   0.750000000
   0.751503311   0.248382150   0.250000000
   0.751548403   0.248521021   0.750000000
   0.751606477   0.751359243   0.250000000
   0.751359243   0.751606477   0.750000000
   0.248445497   0.000305692   0.000287392
   0.248445497   0.000305692   0.499712608
   0.248806474   0.499464570   0.000039759
   0.248806474   0.499464570   0.499960241
   0.751427664   0.000522905   0.000153312
   0.751427664   0.000522905   0.499846688
   0.751294024   0.499418274   0.000453581
   0.751294024   0.499418274   0.499546419
   0.000305692   0.248445497   0.999712608
   0.000305692   0.248445497   0.500287392
   0.000522905   0.751427664   0.999846688
   0.000522905   0.751427664   0.500153312
   0.499464570   0.248806474   0.999960241
   0.499464570   0.248806474   0.500039759
   0.499418274   0.751294024   0.999546419
   0.499418274   0.751294024   0.500453581
   0.000132213   0.001462392   0.250000000
   0.001462392   0.000132213   0.750000000
   0.000234603   0.500168735   0.250000000
   0.000205431   0.499526120   0.750000000
   0.499526120   0.000205431   0.250000000
   0.500168735   0.000234603   0.750000000
   0.500104024   0.499434786   0.250000000
   0.499434786   0.500104024   0.750000000
Mg28Ni4O32
   1.00000000
   8.472648274   0.000038733   0.000000000
   0.000038733   8.472648274  -0.000000000
   0.000000000  -0.000000000   8.470967425
  Ni  Mg  O
  4  28  32
Direct configuration=     8
   0.000245835   0.000245835   0.000000000
   0.000245835   0.000245835   0.500000000
   0.999668282   0.250038727   0.250000000
   0.250038727   0.999668282   0.750000000
   0.000537391   0.499580421   0.999951469
   0.000537391   0.499580421   0.500048531
   0.499580421   0.000537391   0.000048531
   0.499580421   0.000537391   0.499951469
   0.499470797   0.499470797   0.000000000
   0.499470797   0.499470797   0.500000000
   0.000892066   0.247009311   0.750000000
   0.000595546   0.750894543   0.250000000
   0.000242527   0.752599638   0.750000000
   0.499581186   0.247236088   0.250000000
   0.499534525   0.249750145   0.750000000
   0.499198259   0.752629715   0.250000000
   0.499897713   0.750551230   0.750000000
   0.247009311   0.000892066   0.250000000
   0.249750145   0.499534525   0.250000000
   0.247236088   0.499581186   0.750000000
   0.752599638   0.000242527   0.250000000
   0.750894543   0.000595546   0.750000000
   0.750551230   0.499897713   0.250000000
   0.752629715   0.499198259   0.750000000
   0.248296433   0.248296433   1.000000000
   0.248296433   0.248296433   0.500000000
   0.248485028   0.751618760   0.999943905
   0.248485028   0.751618760   0.500056095
   0.751618760   0.248485028   0.000056095
   0.751618760   0.248485028   0.499943905
   0.751342372   0.751342372   0.000000000
   0.751342372   0.751342372   0.500000000
   0.248166121   0.248549097   0.250000000
   0.248549097   0.248166121   0.750000000
   0.248465439   0.751698743   0.250000000
   0.248443955   0.751706809   0.750000000
   0.751706809   0.248443955   0.250000000
   0.751698743   0.248465439   0.750000000
   0.751630527   0.751729294   0.250000000
   0.751729294   0.751630527   0.750000000
   0.248394218   0.000294108   0.000132582
   0.248394218   0.000294108   0.499867418
   0.248685880   0.499374512   0.000187342
   0.248685880   0.499374512   0.499812658
   0.751691935   0.000422709   0.000163148
   0.751691935   0.000422709   0.499836852
   0.751407741   0.499342143   0.000299245
   0.751407741   0.499342143   0.499700755
   0.000294108   0.248394218   0.999867418
   0.000294108   0.248394218   0.500132582
   0.000422709   0.751691935   0.999836852
   0.000422709   0.751691935   0.500163148
   0.499374512   0.248685880   0.999812658
   0.499374512   0.248685880   0.500187342
   0.499342143   0.751407741   0.999700755
   0.499342143   0.751407741   0.500299245
   0.999981620   0.001538424   0.250000000
   0.001538424   0.999981620   0.750000000
   0.000440118   0.499863020   0.250000000
   0.000088641   0.499579796   0.750000000
   0.499579796   0.000088641   0.250000000
   0.499863020   0.000440118   0.750000000
   0.499902243   0.499516083   0.250000000
   0.499516083   0.499902243   0.750000000
Mg28Ni4O32
   1.00000000
   8.485459542   0.000055067   0.000000000
   0.000055067   8.485459542  -0.000000000
   0.000000000  -0.000000000   8.483086261
  Ni  Mg  O
  4  28  32
Direct configuration=     9
   0.000211138   0.000211138   0.000000000
   0.000211138   0.000211138   0.500000000
   0.999757878   0.250374158   0.250000000
   0.250374158   0.999757878   0.750000000
   0.000289118   0.499706616   0.000038360
   0.000289118   0.499706616   0.499961640
   0.499706616   0.000289118   0.999961640
   0.499706616   0.000289118   0.500038360
   0.499544788   0.499544788   0.000000000
   0.499544788   0.499544788   0.500000000
   0.000631141   0.247235617   0.750000000
   0.000453693   0.750524814   0.250000000
   0.999916154   0.752243243   0.750000000
   0.499607014   0.247791117   0.250000000
   0.499583470   0.250089278   0.750000000
   0.499238586   0.752354107   0.250000000
   0.500103214   0.750220649   0.750000000
   0.247235617   0.000631141   0.250000000
   0.250089278   0.499583470   0.250000000
   0.247791117   0.499607014   0.750000000
   0.752243243   0.999916154   0.250000000
   0.750524814   0.000453693   0.750000000
   0.750220649   0.500103214   0.250000000
   0.752354107   0.499238586   0.750000000
   0.248620396   0.248620396   0.000000000
   0.248620396   0.248620396   0.500000000
   0.248928170   0.751289909   0.000109401
   0.248928170   0.751289909   0.499890599
   0.751289909   0.248928170   0.999890599
   0.751289909   0.248928170   0.500109401
   0.751021924   0.751021924   0.000000000
   0.751021924   0.751021924   0.500000000
   0.248127719   0.248994701   0.250000000
   0.248994701   0.248127719   0.750000000
   0.248481725   0.751715706   0.250000000
   0.248583609   0.751460505   0.750000000
   0.751460505   0.248583609   0.250000000
   0.751715706   0.248481725   0.750000000
   0.751522342   0.751974567   0.250000000
   0.751974567   0.751522342   0.750000000
   0.248632395   0.000255942   0.000143077
   0.248632395   0.000255942   0.499856923
   0.248532696   0.499370683   0.000177452
   0.248532696   0.499370683   0.499822548
   0.751605030   0.000307500   0.000101949
   0.751605030   0.000307500   0.499898051
   0.751504820   0.499345121   0.000037128
   0.751504820   0.499345121   0.499962872
   0.000255942   0.248632395   0.999856923
   0.000255942   0.248632395   0.500143077
   0.000307500   0.751605030   0.999898051
   0.000307500   0.751605030   0.500101949
   0.499370683   0.248532696   0.999822548
   0.499370683   0.248532696   0.500177452
   0.499345121   0.751504820   0.999962872
   0.499345121   0.751504820   0.500037128
   0.999853639   0.001365756   0.250000000
   0.001365756   0.999853639   0.750000000
   0.000679102   0.499814468   0.250000000
   0.000142283   0.499646341   0.750000000
   0.499646341   0.000142283   0.250000000
   0.499814468   0.000679102   0.750000000
   0.499630269   0.499550640   0.250000000
   0.499550640   0.499630269   0.750000000
Mg28Ni4O32
   1.00000000
   8.495735409   0.000068995   0.000000000
   0.000068995   8.495735409  -0.000000000
   0.000000000  -0.000000000   8.492790451
  Ni  Mg  O
  4  28  32
Direct configuration=     10
   0.000288626   0.000288626   0.000000000
   0.000288626   0.000288626   0.500000000
   0.999769933   0.250444766   0.250000000
   0.250444766   0.999769933   0.750000000
   0.000004485   0.499680760   0.000302473
   0.000004485   0.499680760   0.499697527
   0.499680760   0.000004485   0.999697527
   0.499680760   0.000004485   0.500302473
   0.499728594   0.499728594   0.000000000
   0.499728594   0.499728594   0.500000000
   0.000511706   0.247273003   0.750000000
   0.000235465   0.750424049   0.250000000
   0.999807152   0.752166314   0.750000000
   0.499705045   0.248570505   0.250000000
   0.499581345   0.250312210   0.750000000
   0.499388921   0.751750115   0.250000000
   0.500173618   0.749945006   0.750000000
   0.247273003   0.000511706   0.250000000
   0.250312210   0.499581345   0.250000000
   0.248570505   0.499705045   0.750000000
   0.752166314   0.999807152   0.250000000
   0.750424049   0.000235465   0.750000000
   0.749945006   0.500173618   0.250000000
   0.751750115   0.499388921   0.750000000
   0.248782895   0.248782895   0.000000000
   0.248782895   0.248782895   0.500000000
   0.249346484   0.751127325   0.000065136
   0.249346484   0.751127325   0.499934864
   0.751127325   0.249346484   0.999934864
   0.751127325   0.249346484   0.500065136
   0.750687364   0.750687364   0.000000000
   0.750687364   0.750687364   0.500000000
   0.248614264   0.249322060   0.250000000
   0.249322060   0.248614264   0.750000000
   0.248606126   0.751525283   0.250000000
   0.248791790   0.750790230   0.750000000
   0.750790230   0.248791790   0.250000000
   0.751525283   0.248606126   0.750000000
   0.751274850   0.751850209   0.250000000
   0.751850209   0.751274850   0.750000000
   0.249095010   0.000199551   0.000341920
   0.249095010   0.000199551   0.499658080
   0.248477953   0.499491058   0.999974722
   0.248477953   0.499491058   0.500025278
   0.751123514   0.000231613   0.999976419
   0.751123514   0.000231613   0.500023581
   0.751468890   0.499467154   0.999808773
   0.751468890   0.499467154   0.500191227
   0.000199551   0.249095010   0.999658080
   0.000199551   0.249095010   0.500341920
   0.000231613   0.751123514   0.000023581
   0.000231613   0.751123514   0.499976419
   0.499491058   0.248477953   0.000025278
   0.499491058   0.248477953   0.499974722
   0.499467154   0.751468890   0.000191227
   0.499467154   0.751468890   0.499808773
   0.999830034   0.000986710   0.250000000
   0.000986710   0.999830034   0.750000000
   0.000781035   0.500118910   0.250000000
   0.000370187   0.499687361   0.750000000
   0.499687361   0.000370187   0.250000000
   0.500118910   0.000781035   0.750000000
   0.499456480   0.499532762   0.250000000
   0.499532762   0.499456480   0.750000000
Mg28Ni4O32
   1.00000000
   8.499538130   0.000075277   0.000000000
   0.000075277   8.499538130  -0.000000000
   0.000000000  -0.000000000   8.496361291
  Ni  Mg  O
  4  28  32
Direct configuration=     11
   0.000393848   0.000393848   0.000000000
   0.000393848   0.000393848   0.500000000
   0.999718220   0.250277647   0.250000000
   0.250277647   0.999718220   0.750000000