H107LiMg53
   1.00000000
   13.503017213  -0.000000091   0.000000000
  -0.000000091   13.503017213  -0.000000000
   0.000000000  -0.000000000   9.029981291
  Li  Mg  H
  1  53  107
Direct configuration=     1
   0.999998770   0.000001230   0.000000000
   0.999998972   0.000001027   0.332903960
   0.999998972   0.000001027   0.667096040
   0.999996119   0.333308870   0.000000000
   0.000001483   0.333327649   0.333317993
   0.000001483   0.333327649   0.666682006
   0.999999587   0.666696344   0.000000000
   0.999998948   0.666675932   0.333325314
   0.999998948   0.666675932   0.666674686
   0.333303655   0.000000412   0.000000000
   0.333324068   0.000001051   0.333325314
   0.333324068   0.000001051   0.666674686
   0.333329715   0.333329435   0.000000000
   0.333328694   0.333329249   0.333329168
   0.333328694   0.333329250   0.666670831
   0.333326613   0.666673387   0.000000000
   0.333330870   0.666669130   0.333335706
   0.333330870   0.666669130   0.666664294
   0.666691129   0.000003881   0.000000000
   0.666672350   0.999998517   0.333317993
   0.666672351   0.999998517   0.666682006
   0.666666544   0.333333456   0.000000000
   0.666507407   0.333492593   0.332909870
   0.666507407   0.333492593   0.667090130
   0.666670565   0.666670285   0.000000000
   0.666670751   0.666671306   0.333329169
   0.666670751   0.666671306   0.666670832
   0.166535304   0.166534054   0.166477257
   0.166656182   0.166657734   0.500000000
   0.166535304   0.166534053   0.833522743
   0.166661200   0.500000306   0.166664555
   0.166665077   0.500001056   0.500000000
   0.166661200   0.500000306   0.833335444
   0.166525409   0.833474590   0.166620864
   0.166655604   0.833344395   0.500000000
   0.166525409   0.833474590   0.833379136
   0.500005758   0.166657221   0.166656689
   0.499976725   0.166651382   0.500000000
   0.500005758   0.166657221   0.833343312
   0.500009463   0.499990537   0.166671263
   0.499974266   0.500025734   0.500000000
   0.500009463   0.499990537   0.833328737
   0.499999694   0.833338800   0.166664556
   0.499998944   0.833334923   0.500000000
   0.499999694   0.833338800   0.833335444
   0.833482452   0.166517547   0.166583180
   0.833525641   0.166474359   0.500000000
   0.833482452   0.166517547   0.833416819
   0.833342779   0.499994242   0.166656689
   0.833348618   0.500023275   0.500000000
   0.833342779   0.499994242   0.833343311
   0.833465946   0.833464696   0.166477257
   0.833342266   0.833343818   0.500000000
   0.833465946   0.833464696   0.833522744
   0.101609563   0.101608346   1.000000000
   0.101468522   0.101465989   0.333403469
   0.101468522   0.101465989   0.666596531
   0.101440782   0.434772644   1.000000000
   0.101439527   0.434772023   0.333332817
   0.101439528   0.434772023   0.666667183
   0.101456923   0.768073466   0.000000000
   0.101437406   0.768083395   0.333356157
   0.101437406   0.768083395   0.666643843
   0.434770907   0.101440124   1.000000000
   0.434777019   0.101442909   0.333338793
   0.434777019   0.101442909   0.666661206
   0.434765864   0.434774387   0.000000000
   0.434776487   0.434769219   0.333338648
   0.434776487   0.434769219   0.666661352
   0.434772293   0.768105375   1.000000000
   0.434772433   0.768106111   0.333332859
   0.434772433   0.768106112   0.666667140
   0.768074817   0.101455420   0.000000000
   0.768062092   0.101494701   0.333427847
   0.768062092   0.101494701   0.666572153
   0.768112589   0.434779902   0.000000000
   0.768093140   0.434708588   0.333410485
   0.768093140   0.434708588   0.666589515
   0.768039614   0.768039582   1.000000000
   0.768109152   0.768108914   0.333325393
   0.768109152   0.768108914   0.666674607
   0.231960418   0.231960386   0.000000000
   0.231891086   0.231890848   0.333325393
   0.231891086   0.231890848   0.666674607
   0.231894624   0.565227707   1.000000000
   0.231893888   0.565227567   0.333332860
   0.231893888   0.565227567   0.666667140
   0.231926534   0.898543077   0.000000000
   0.231916606   0.898562594   0.333356156
   0.231916606   0.898562595   0.666643844
   0.565220098   0.231887411   1.000000000
   0.565291412   0.231906860   0.333410485
   0.565291412   0.231906860   0.666589515
   0.565225612   0.565234136   1.000000000
   0.565230781   0.565223513   0.333338648
   0.565230781   0.565223513   0.666661352
   0.565227357   0.898559219   1.000000000
   0.565227978   0.898560473   0.333332816
   0.565227977   0.898560473   0.666667184
   0.898544581   0.231925184   0.000000000
   0.898505299   0.231937908   0.333427846
   0.898505299   0.231937908   0.666572154
   0.898559876   0.565229094   1.000000000
   0.898557091   0.565222981   0.333338793
   0.898557091   0.565222981   0.666661207
   0.898391654   0.898390437   1.000000000
   0.898534011   0.898531479   0.333403469
   0.898534011   0.898531479   0.666596531
   0.065217912   0.268135857   0.166691995
   0.065225169   0.268100016   0.500000000
   0.065217912   0.268135857   0.833308005
   0.065229052   0.601440453   0.166667788
   0.065229206   0.601440211   0.500000000
   0.065229052   0.601440453   0.833332211
   0.065358519   0.934641481   0.166967699
   0.065216627   0.934783373   0.500000000
   0.065358519   0.934641481   0.833032301
   0.398557464   0.268104519   0.166667059
   0.398564554   0.268108285   0.500000000
   0.398557464   0.268104519   0.833332941
   0.398561250   0.601438750   0.166665789
   0.398560843   0.601439157   0.500000000
   0.398561250   0.601438750   0.833334211
   0.398559547   0.934770948   0.166667788
   0.398559789   0.934770794   0.500000000
   0.398559546   0.934770948   0.833332212
   0.731902323   0.268097677   0.166676193
   0.731902323   0.268097677   0.833323808
   0.731895481   0.601442536   0.166667059
   0.731891715   0.601435446   0.500000000
   0.731895481   0.601442536   0.833332941
   0.731864143   0.934782088   0.166691995
   0.731899984   0.934774832   0.500000000
   0.731864144   0.934782088   0.833308005
   0.268136246   0.065217413   0.166692006
   0.268097536   0.065226778   0.500000000
   0.268136246   0.065217413   0.833307994
   0.268103482   0.398558885   0.166666597
   0.268104450   0.398561504   0.500000000
   0.268103482   0.398558885   0.833333403
   0.268101259   0.731898741   0.166665955
   0.268105865   0.731894135   0.500000000
   0.268101259   0.731898741   0.833334045
   0.601442004   0.065225391   0.166665777
   0.601453860   0.065254522   0.500000000
   0.601442004   0.065225391   0.833334223
   0.601430681   0.398569318   0.166673369
   0.601640336   0.398359664   0.500000000
   0.601430682   0.398569318   0.833326630
   0.601441115   0.731896517   0.166666596
   0.601438496   0.731895550   0.500000000
   0.601441115   0.731896517   0.833333404
   0.934642291   0.065357709   0.166965725
   0.934781851   0.065218149   0.500000000
   0.934642291   0.065357709   0.833034275
   0.934774609   0.398557996   0.166665777
   0.934745478   0.398546140   0.500000000
   0.934774609   0.398557996   0.833334223
   0.934782587   0.731863754   0.166692006
   0.934773222   0.731902464   0.500000000
   0.934782587   0.731863754   0.833307994
H107LiMg53
   1.00000000
   13.503226737  -0.000003025   0.000000000
  -0.000003025   13.503226735  -0.000000001
   0.000000000  -0.000000000   9.029760470
  Li  Mg  H
  1  53  107
Direct configuration=     2
   0.999985536   0.000014453   0.999999993
   0.999994445   0.000005526   0.328298929
   0.999994441   0.000005528   0.671701080
   0.999959482   0.333055894   0.999999974
   0.000005943   0.333269512   0.333176626
   0.000005943   0.333269509   0.666823396
   0.999992788   0.667009723   0.999999980
   0.999988734   0.666770965   0.333257377
   0.999988734   0.666770964   0.666742628
   0.332990290   0.000007197   0.999999985
   0.333229062   0.000011258   0.333257394
   0.333229064   0.000011255   0.666742607
   0.333300371   0.333301206   0.999999989
   0.333267319   0.333275172   0.333288302
   0.333267317   0.333275171   0.666711702
   0.333243452   0.666756560   0.999999997
   0.333297976   0.666702027   0.333351492
   0.333297976   0.666702027   0.666648516
   0.666944094   0.000040493   0.999999986
   0.666730483   0.999994037   0.333176631
   0.666730481   0.999994034   0.666823394
   0.666689822   0.333310200   0.999999985
   0.664684722   0.335315273   0.328164653
   0.664684726   0.335315274   0.671835366
   0.666698798   0.666699659   0.999999984
   0.666724825   0.666732679   0.333288315
   0.666724823   0.666732680   0.666711692
   0.165086896   0.165071070   0.164459067
   0.166559256   0.166578935   0.499999985
   0.165086896   0.165071073   0.835540948
   0.166596151   0.500005181   0.166636039
   0.166642168   0.500013305   0.499999985
   0.166596147   0.500005180   0.833363993
   0.165022667   0.834977306   0.166158541
   0.166514504   0.833485505   0.499999988
   0.165022668   0.834977310   0.833841508
   0.500078261   0.166550904   0.166569744
   0.499716158   0.166473714   0.499999980
   0.500078263   0.166550902   0.833430277
   0.500097684   0.499902296   0.166724298
   0.499743522   0.500256474   0.499999968
   0.500097690   0.499902293   0.833275719
   0.499994807   0.833403876   0.166636039
   0.499986688   0.833357834   0.499999995
   0.499994807   0.833403875   0.833363986
   0.835070354   0.164929652   0.165728709
   0.835744209   0.164255808   0.499999986
   0.835070355   0.164929650   0.834271317
   0.833449101   0.499921719   0.166569757
   0.833526289   0.500283821   0.499999981
   0.833449103   0.499921729   0.833430259
   0.834928934   0.834913126   0.164459079
   0.833421089   0.833440734   0.499999986
   0.834928931   0.834913122   0.835540939
   0.103510565   0.103495306   0.999999993
   0.101848454   0.101819072   0.334168772
   0.101848457   0.101819072   0.665831231
   0.101522458   0.434829365   0.999999988
   0.101510972   0.434827335   0.333332056
   0.101510972   0.434827336   0.666667949
   0.101727226   0.767782809   0.999999985
   0.101496356   0.767888730   0.333623201
   0.101496357   0.767888728   0.666376793
   0.434806715   0.101512883   0.999999993
   0.434892967   0.101556725   0.333401789
   0.434892968   0.101556725   0.666598226
   0.434756398   0.434855791   0.999999993
   0.434894031   0.434786668   0.333414613
   0.434894027   0.434786666   0.666585404
   0.434833800   0.768165855   0.999999993
   0.434835012   0.768174283   0.333332411
   0.434835008   0.768174279   0.666667585
   0.767798312   0.101705497   0.999999994
   0.767612852   0.102209230   0.334510497
   0.767612855   0.102209234   0.665489504
   0.768249022   0.434926029   0.999999987
   0.768032567   0.434046967   0.334278674
   0.768032565   0.434046962   0.665721330
   0.767362217   0.767361457   0.999999986
   0.768233110   0.768229851   0.333183664
   0.768233108   0.768229849   0.666816352
   0.232638532   0.232637758   0.999999989
   0.231770137   0.231766885   0.333183659
   0.231770139   0.231766889   0.666816361
   0.231834131   0.565166185   0.999999989
   0.231825732   0.565165001   0.333332418
   0.231825734   0.565165005   0.666667584
   0.232217203   0.898272793   0.999999979
   0.232111257   0.898503637   0.333623220
   0.232111258   0.898503636   0.666376781
   0.565073956   0.231750961   0.999999987
   0.565953049   0.231967449   0.334278672
   0.565953051   0.231967450   0.665721333
   0.565144202   0.565243604   0.999999995
   0.565213344   0.565105986   0.333414619
   0.565213345   0.565105987   0.666585401
   0.565170642   0.898477545   0.999999993
   0.565172650   0.898489009   0.333332053
   0.565172652   0.898489011   0.666667943
   0.898294500   0.232201691   0.999999992
   0.897790778   0.232387146   0.334510503
   0.897790780   0.232387150   0.665489494
   0.898487131   0.565193297   0.999999985
   0.898443268   0.565107029   0.333401779
   0.898443268   0.565107028   0.666598241
   0.896504695   0.896489443   0.999999991
   0.898180925   0.898151554   0.334168769
   0.898180925   0.898151553   0.665831233
   0.065050614   0.268531428   0.166970209
   0.065133080   0.268102531   0.499999991
   0.065050612   0.268531430   0.833029807
   0.065184998   0.601522428   0.166674443
   0.065183886   0.601520790   0.499999999
   0.065184998   0.601522430   0.833325565
   0.066688725   0.933311288   0.170318584
   0.064994297   0.935005719   0.499999995
   0.066688729   0.933311285   0.829681431
   0.398463592   0.268152150   0.166674681
   0.398539328   0.268204602   0.499999993
   0.398463593   0.268152150   0.833325319
   0.398503782   0.601496221   0.166653359
   0.398485117   0.601514875   0.499999998
   0.398503782   0.601496220   0.833346647
   0.398477587   0.934814983   0.166674446
   0.398479178   0.934816150   0.499999993
   0.398477585   0.934814981   0.833325561
   0.731969742   0.268030253   0.166738611
   0.731969739   0.268030257   0.833261391
   0.731847845   0.601536408   0.166674688
   0.731795373   0.601460698   0.499999993
   0.731847845   0.601536409   0.833325309
   0.731468574   0.934949391   0.166970203
   0.731897444   0.934866955   0.499999985
   0.731468575   0.934949392   0.833029815
   0.268537343   0.065047723   0.166969623
   0.268072745   0.065155440   0.499999991
   0.268537340   0.065047724   0.833030398
   0.268142042   0.398475316   0.166666684
   0.268154809   0.398503654   0.499999997
   0.268142045   0.398475313   0.833333329
   0.268070761   0.731929240   0.166656066
   0.268170916   0.731829083   0.499999992
   0.268070759   0.731929242   0.833343926
   0.601540980   0.065141541   0.166649135
   0.601693857   0.065498408   0.499999987
   0.601540979   0.065141543   0.833350865
   0.601361282   0.398638711   0.166633111
   0.603968983   0.396031019   0.499999993
   0.601361283   0.398638710   0.833366896
   0.601524705   0.731857940   0.166666677
   0.601496357   0.731845177   0.499999994
   0.601524709   0.731857935   0.833333341
   0.933319099   0.066680903   0.170297831
   0.935041722   0.064958278   0.499999995
   0.933319098   0.066680904   0.829702168
   0.934858468   0.398459023   0.166649137
   0.934501577   0.398306160   0.499999990
   0.934858468   0.398459025   0.833350867
   0.934952307   0.731462622   0.166969621
   0.934844545   0.731927268   0.499999997
   0.934952309   0.731462619   0.833030394
H107LiMg53
   1.00000000
   13.503249008  -0.000005791   0.000000000
  -0.000005791   13.503249005  -0.000000001
   0.000000000  -0.000000000   9.029746497
  Li  Mg  H
  1  53  107
Direct configuration=     3
   0.999985710   0.000014280   0.999999993
   0.000001994   0.999997983   0.328384281
   0.000001990   0.999997984   0.671615726
   0.999964713   0.333066112   0.999999977
   0.999993970   0.333270243   0.333198258
   0.999993971   0.333270239   0.666801761
   0.999990816   0.667002295   0.999999982
   0.999989927   0.666767909   0.333272449
   0.999989929   0.666767908   0.666727554
   0.332997717   0.000009173   0.999999986
   0.333232117   0.000010069   0.333272461
   0.333232120   0.000010066   0.666727540
   0.333307469   0.333311949   0.999999989
   0.333253605   0.333262670   0.333288887
   0.333253603   0.333262669   0.666711116
   0.333230106   0.666769907   0.999999997
   0.333288433   0.666711572   0.333338589
   0.333288433   0.666711573   0.666661419
   0.666933875   0.000035267   0.999999988
   0.666729753   0.000006014   0.333198262
   0.666729753   0.000006012   0.666801763
   0.666718852   0.333281170   0.999999987
   0.664626690   0.335373304   0.328080841
   0.664626694   0.335373305   0.671919174
   0.666688056   0.666692558   0.999999986
   0.666737329   0.666746395   0.333288899
   0.666737327   0.666746396   0.666711107
   0.165087345   0.165070849   0.164534501
   0.166579880   0.166600633   0.499999986
   0.165087345   0.165070852   0.835465512
   0.166594459   0.500006598   0.166634447
   0.166640240   0.500013878   0.499999986
   0.166594455   0.500006597   0.833365579
   0.165077509   0.834922468   0.166195248
   0.166498500   0.833501509   0.499999989
   0.165077509   0.834922472   0.833804797
   0.500087484   0.166551389   0.166593690
   0.499712177   0.166468165   0.499999981
   0.500087487   0.166551387   0.833406329
   0.500081737   0.499918245   0.166729367
   0.499782247   0.500217752   0.499999969
   0.500081743   0.499918242   0.833270649
   0.499993392   0.833405562   0.166634445
   0.499986116   0.833359760   0.499999996
   0.499993393   0.833405561   0.833365576
   0.835013069   0.164986935   0.165784485
   0.835836732   0.164163283   0.499999986
   0.835013070   0.164986933   0.834215537
   0.833448615   0.499912498   0.166593702
   0.833531837   0.500287802   0.499999983
   0.833448618   0.499912505   0.833406311
   0.834929156   0.834912676   0.164534512
   0.833399389   0.833420110   0.499999988
   0.834929154   0.834912671   0.835465504
   0.103480610   0.103464617   0.999999994
   0.101839620   0.101811142   0.334163892
   0.101839622   0.101811142   0.665836110
   0.101519404   0.434824989   0.999999989
   0.101510727   0.434827507   0.333333402
   0.101510727   0.434827509   0.666666604
   0.101734803   0.767782583   0.999999987
   0.101506580   0.767875312   0.333637676
   0.101506582   0.767875310   0.666362318
   0.434800855   0.101508435   0.999999993
   0.434898354   0.101561165   0.333401480
   0.434898354   0.101561164   0.666598534
   0.434758819   0.434856500   0.999999994
   0.434905942   0.434779220   0.333426825
   0.434905939   0.434779218   0.666573192
   0.434836733   0.768167217   0.999999994
   0.434837643   0.768175348   0.333333122
   0.434837639   0.768175344   0.666666875
   0.767797426   0.101709475   0.999999995
   0.767579653   0.102245881   0.334553470
   0.767579653   0.102245884   0.665446533
   0.768247844   0.434930543   0.999999988
   0.768046390   0.434025375   0.334295473
   0.768046389   0.434025373   0.665704530
   0.767349512   0.767348363   0.999999987
   0.768252998   0.768249310   0.333132562
   0.768252997   0.768249308   0.666867453
   0.232651626   0.232650463   0.999999990
   0.231750677   0.231746996   0.333132558
   0.231750679   0.231747000   0.666867462
   0.231832771   0.565163254   0.999999990
   0.231824665   0.565162368   0.333333128
   0.231824667   0.565162372   0.666666874
   0.232217427   0.898265213   0.999999981
   0.232124673   0.898493411   0.333637693
   0.232124674   0.898493410   0.666362308
   0.565069443   0.231752140   0.999999988
   0.565974640   0.231953626   0.334295472
   0.565974640   0.231953626   0.665704532
   0.565143493   0.565241182   0.999999995
   0.565220789   0.565094072   0.333426831
   0.565220790   0.565094073   0.666573188
   0.565175016   0.898480598   0.999999994
   0.565172477   0.898489255   0.333333399
   0.565172479   0.898489257   0.666666598
   0.898290523   0.232202577   0.999999993
   0.897754126   0.232420346   0.334553476
   0.897754128   0.232420350   0.665446523
   0.898491576   0.565199155   0.999999986
   0.898438827   0.565101643   0.333401472
   0.898438827   0.565101642   0.666598549
   0.896535385   0.896519397   0.999999992
   0.898188855   0.898160388   0.334163889
   0.898188855   0.898160386   0.665836112
   0.065048790   0.268533753   0.166974425
   0.065127400   0.268104632   0.499999992
   0.065048788   0.268533753   0.833025590
   0.065184385   0.601522407   0.166672808
   0.065180405   0.601521744   0.499999999
   0.065184385   0.601522409   0.833327199
   0.066644590   0.933355423   0.170388518
   0.064959430   0.935040584   0.499999996
   0.066644594   0.933355420   0.829611496
   0.398473826   0.268150734   0.166681667
   0.398540325   0.268209562   0.499999994
   0.398473827   0.268150734   0.833318333
   0.398507478   0.601492524   0.166653883
   0.398478942   0.601521050   0.499999998
   0.398507479   0.601492522   0.833346123
   0.398477607   0.934815599   0.166672812
   0.398478226   0.934819627   0.499999993
   0.398477605   0.934815596   0.833327194
   0.732001142   0.267998855   0.166703128
   0.732001139   0.267998858   0.833296874
   0.731849264   0.601526173   0.166681673
   0.731790417   0.601459696   0.499999994
   0.731849264   0.601526174   0.833318325
   0.731466250   0.934951215   0.166974419
   0.731895345   0.934872632   0.499999986
   0.731466250   0.934951216   0.833025596
   0.268540943   0.065048859   0.166973138
   0.268075075   0.065152867   0.499999992
   0.268540940   0.065048860   0.833026881
   0.268142675   0.398480630   0.166671504
   0.268155981   0.398505391   0.499999998
   0.268142678   0.398480627   0.833328509
   0.268035230   0.731964770   0.166657514
   0.268171060   0.731828938   0.499999992
   0.268035229   0.731964772   0.833342478
   0.601541022   0.065141204   0.166646214
   0.601703865   0.065506126   0.499999988
   0.601541021   0.065141207   0.833353786
   0.601308408   0.398691585   0.166496064
   0.604034008   0.395965993   0.499999994
   0.601308409   0.398691585   0.833503942
   0.601519387   0.731857311   0.166671498
   0.601494617   0.731844006   0.499999995
   0.601519392   0.731857306   0.833328520
   0.933362167   0.066637834   0.170372166
   0.935141498   0.064858501   0.499999995
   0.933362166   0.066637835   0.829627833
   0.934858802   0.398458983   0.166646216
   0.934493859   0.398296152   0.499999990
   0.934858801   0.398458985   0.833353788
   0.934951169   0.731459025   0.166973134
   0.934847120   0.731924937   0.499999997
   0.934951168   0.731459024   0.833026881
H107LiMg53
   1.00000000
   13.503706458  -0.000057862  -0.000000000
  -0.000057862   13.503706447  -0.000000001
  -0.000000000  -0.000000000   9.029442527
  Li  Mg  H
  1  53  107
Direct configuration=     4
   0.999986561   0.000013438   0.000000003
   0.000150673   0.999849362   0.329028585
   0.000150677   0.999849370   0.670971393
   0.000049503   0.333193597   0.000000023
   0.999776796   0.333278252   0.333549102
   0.999776796   0.333278275   0.666450849
   0.999955139   0.666934136   0.000000038
   0.000007849   0.666726292   0.333520015
   0.000007854   0.666726291   0.666479945
   0.333065853   0.000044868   0.000000034
   0.333273652   0.999992139   0.333519984
   0.333273651   0.999992140   0.666480024
   0.333435550   0.333503085   0.000000018
   0.332994265   0.333026804   0.333283228
   0.332994261   0.333026803   0.666716779
   0.332966330   0.667033639   0.999999996
   0.333106448   0.666893581   0.333119874
   0.333106446   0.666893575   0.666880126
   0.666806422   0.999950529   0.000000027
   0.666721770   0.000223187   0.333549092
   0.666721764   0.000223190   0.666450873
   0.667257110   0.332742866   0.000000029
   0.663220447   0.336779545   0.325615043
   0.663220439   0.336779554   0.674384957
   0.666496886   0.666564406   0.000000033
   0.666973200   0.667005741   0.333283215
   0.666973193   0.667005750   0.666716778
   0.164803836   0.164773718   0.165436216
   0.166928358   0.166972369   0.500000034
   0.164803840   0.164773733   0.834563772
   0.166548930   0.500031593   0.166601364
   0.166599855   0.500026579   0.500000025
   0.166548929   0.500031583   0.833398620
   0.165721055   0.834278943   0.166762852
   0.166173621   0.833826382   0.500000009
   0.165721051   0.834278956   0.833237104
   0.500270212   0.166539211   0.166998910
   0.499591486   0.166332320   0.500000021
   0.500270210   0.166539217   0.833001062
   0.499790490   0.500209515   0.166828178
   0.500445162   0.499554853   0.500000018
   0.499790460   0.500209525   0.833171778
   0.499968399   0.833451036   0.166601333
   0.499973384   0.833400163   0.500000037
   0.499968408   0.833451035   0.833398662
   0.834340531   0.165659440   0.166614143
   0.837973730   0.162026259   0.500000012
   0.834340529   0.165659436   0.833385803
   0.833460795   0.499729795   0.166998897
   0.833667648   0.500408534   0.500000027
   0.833460801   0.499729797   0.833001062
   0.835226274   0.835196165   0.165436204
   0.833027632   0.833071647   0.500000036
   0.835226327   0.835196142   0.834563779
   0.103323343   0.103290739   0.000000026
   0.101758838   0.101742052   0.334254670
   0.101758833   0.101742049   0.665745284
   0.101483440   0.434760520   0.000000013
   0.101516130   0.434838553   0.333359610
   0.101516127   0.434838554   0.666640399
   0.101923829   0.767725538   0.000000021
   0.101706732   0.767591778   0.333961814
   0.101706728   0.767591776   0.666038196
   0.434709623   0.101448193   0.000000019
   0.435016353   0.101660588   0.333412444
   0.435016356   0.101660593   0.666587547
   0.434791917   0.434890692   0.000000015
   0.435147428   0.434632961   0.333669802
   0.435147430   0.434632965   0.666330189
   0.434896811   0.768201219   0.000000012
   0.434894319   0.768206544   0.333341507
   0.434894319   0.768206545   0.666658466
   0.767733986   0.101830112   0.000000015
   0.766888258   0.103056915   0.335555457
   0.766888261   0.103056916   0.664444564
   0.768256119   0.435040042   0.000000013
   0.768285449   0.433497225   0.334755112
   0.768285453   0.433497238   0.665244871
   0.767008995   0.767000672   0.000000020
   0.768630135   0.768617678   0.332185040
   0.768630130   0.768617674   0.667814929
   0.232999384   0.232991064   0.000000008
   0.231382315   0.231369869   0.332185031
   0.231382322   0.231369872   0.667814954
   0.231798828   0.565103226   0.000000010
   0.231793427   0.565105657   0.333341513
   0.231793424   0.565105658   0.666658448
   0.232274466   0.898076160   0.000000019
   0.232408242   0.898293280   0.333961802
   0.232408243   0.898293280   0.666038193
   0.564959958   0.231743881   0.000000014
   0.566502765   0.231714541   0.334755112
   0.566502757   0.231714538   0.665244871
   0.565109321   0.565208089   0.000000026
   0.565367019   0.564852559   0.333669783
   0.565367022   0.564852562   0.666330204
   0.565239455   0.898516535   0.000000011
   0.565161465   0.898483895   0.333359619
   0.565161455   0.898483889   0.666640384
   0.898169898   0.232266015   0.000000022
   0.896943112   0.233111759   0.335555448
   0.896943108   0.233111752   0.664444546
   0.898551795   0.565290369   0.000000015
   0.898339430   0.564983673   0.333412470
   0.898339425   0.564983669   0.666587528
   0.896709246   0.896676625   0.000000006
   0.898257927   0.898241141   0.334254684
   0.898257915   0.898241129   0.665745293
   0.064979854   0.268651908   0.167113525
   0.065009787   0.268137543   0.500000016
   0.064979861   0.268651894   0.832886469
   0.065165168   0.601537489   0.166647763
   0.065109406   0.601548981   0.500000028
   0.065165177   0.601537481   0.833352215
   0.066171078   0.933828923   0.172305729
   0.064319950   0.935680048   0.500000017
   0.066171081   0.933828923   0.827694273
   0.398644233   0.268136967   0.166815600
   0.398549600   0.268314705   0.500000011
   0.398644237   0.268136961   0.833184369
   0.398542027   0.601457976   0.166658664
   0.398368787   0.601631214   0.500000015
   0.398542043   0.601457966   0.833341331
   0.398462525   0.934834829   0.166647758
   0.398451058   0.934890551   0.500000003
   0.398462521   0.934834827   0.833352203
   0.732538064   0.267461950   0.166082507
   0.732538070   0.267461941   0.833917487
   0.731863049   0.601355742   0.166815594
   0.731685307   0.601450403   0.500000015
   0.731863051   0.601355734   0.833184373
   0.731348095   0.935020133   0.167113527
   0.731862479   0.934990195   0.500000006
   0.731348086   0.935020142   0.832886454
   0.268683861   0.065035897   0.167095646
   0.268110185   0.065098917   0.500000007
   0.268683876   0.065035889   0.832904319
   0.268164288   0.398562720   0.166762540
   0.268183756   0.398519481   0.500000016
   0.268164289   0.398562724   0.833237456
   0.267412974   0.732587034   0.166682507
   0.268175887   0.731824117   0.500000006
   0.267412985   0.732587030   0.833317490
   0.601561340   0.065118968   0.166594278
   0.601925826   0.065696259   0.500000013
   0.601561342   0.065118967   0.833405712
   0.600358131   0.399641872   0.163966855
   0.605645254   0.394354746   0.500000015
   0.600358139   0.399641866   0.836033110
   0.601437244   0.731835742   0.166762552
   0.601480506   0.731816256   0.500000012
   0.601437243   0.731835740   0.833237419
   0.933814654   0.066185351   0.172380660
   0.936983315   0.063016680   0.500000013
   0.933814653   0.066185354   0.827619334
   0.934881050   0.398438638   0.166594283
   0.934303784   0.398074111   0.500000021
   0.934881038   0.398438645   0.833405704
   0.934964091   0.731316162   0.167095622
   0.934901069   0.731889834   0.500000017
   0.934964065   0.731316183   0.832904352
H107LiMg53
   1.00000000
   13.503771455  -0.000065405  -0.000000000
  -0.000065405   13.503771443  -0.000000001
  -0.000000000  -0.000000000   9.029400742
  Li  Mg  H
  1  53  107
Direct configuration=     5
   0.999986869   0.000013130   0.000000003
   0.000181623   0.999818417   0.329040608
   0.000181624   0.999818425   0.670959374
   0.000054165   0.333193985   0.000000024
   0.999752766   0.333285106   0.333568133
   0.999752766   0.333285127   0.666431820
   0.999953162   0.666936601   0.000000034
   0.000007723   0.666717674   0.333530676
   0.000007729   0.666717673   0.666469285
   0.333063390   0.000046846   0.000000032
   0.333282274   0.999992269   0.333530643
   0.333282274   0.999992270   0.666469367
   0.333453823   0.333523858   0.000000018
   0.332968564   0.333003525   0.333273175
   0.332968561   0.333003524   0.666726830
   0.332931671   0.667068301   0.999999996
   0.333084471   0.666915556   0.333112558
   0.333084469   0.666915551   0.666887443
   0.666806032   0.999945868   0.000000024
   0.666714919   0.000247222   0.333568121
   0.666714913   0.000247226   0.666431847
   0.667321292   0.332678688   0.000000026
   0.663062294   0.336937698   0.325296094
   0.663062286   0.336937706   0.674703904
   0.666476113   0.666546134   0.000000030
   0.666996479   0.667031443   0.333273161
   0.666996473   0.667031452   0.666726828
   0.164750983   0.164721014   0.165431806
   0.166955841   0.167002720   0.500000035