Mg28Ni4O32
   1.00000000
   8.440338084   0.000000000   0.000000000
   0.000000000   8.440348659  -0.000003542
   0.000000000  -0.000003542   8.440344115
  Ni  Mg  O
  4  28  32
Direct configuration=     1
   0.000000000   0.000002008   0.000037153
   0.000000000   0.499997992   0.499962847
   0.000000000   0.250000000   0.250000000
   0.500000000   0.250000000   0.750000000
   0.000000000   0.000068447   0.499962465
   0.000000000   0.499931553   0.000037535
   0.500000000   0.000100041   0.999868216
   0.500000000   0.000059092   0.500127195
   0.500000000   0.499940908   0.999872805
   0.500000000   0.499899959   0.500131784
   0.000000000   0.250000000   0.750000000
   0.000000000   0.750000000   0.250000000
   0.000000000   0.750000000   0.750000000
   0.500000000   0.250000000   0.250000000
   0.500000000   0.750000000   0.250000000
   0.500000000   0.750000000   0.750000000
   0.249864287   0.000038187   0.249897503
   0.250026813   0.000081618   0.750082988
   0.249864287   0.499961813   0.250102497
   0.250026813   0.499918382   0.749917012
   0.750135713   0.000038187   0.249897503
   0.749973187   0.000081618   0.750082988
   0.750135713   0.499961813   0.250102497
   0.749973187   0.499918382   0.749917012
   0.249959535   0.249917250   0.999951507
   0.249959535   0.250082750   0.500048493
   0.249933905   0.750093202   0.999993610
   0.249933905   0.749906798   0.500006390
   0.750040465   0.249917250   0.999951507
   0.750040465   0.250082750   0.500048493
   0.750066095   0.750093202   0.999993610
   0.750066095   0.749906798   0.500006390
   0.250123866   0.250000000   0.250000000
   0.249702345   0.250000000   0.750000000
   0.249926860   0.750000000   0.250000000
   0.250021895   0.750000000   0.750000000
   0.749876134   0.250000000   0.250000000
   0.750297655   0.250000000   0.750000000
   0.750073140   0.750000000   0.250000000
   0.749978105   0.750000000   0.750000000
   0.250102276   0.000035137   0.000061461
   0.249888413   0.000011310   0.499983074
   0.249888413   0.499988690   0.000016926
   0.250102276   0.499964863   0.499938539
   0.749897724   0.000035137   0.000061461
   0.750111587   0.000011310   0.499983074
   0.750111587   0.499988690   0.000016926
   0.749897724   0.499964863   0.499938539
   0.000000000   0.250207011   0.999917649
   0.000000000   0.249792989   0.500082351
   0.000000000   0.749777510   0.000066365
   0.000000000   0.750222490   0.499933635
   0.500000000   0.249928401   0.000344242
   0.500000000   0.250071599   0.499655758
   0.500000000   0.750056053   0.999967472
   0.500000000   0.749943947   0.500032528
   0.000000000   0.000004968   0.250193105
   0.000000000   0.000095034   0.749765265
   0.000000000   0.499995032   0.249806895
   0.000000000   0.499904966   0.750234735
   0.500000000   0.000127985   0.249936992
   0.500000000   0.999813110   0.750062280
   0.500000000   0.499872015   0.250063008
   0.500000000   0.500186890   0.749937720
Mg28Ni4O32
   1.00000000
   8.442173349  -0.000000000  -0.000000000
  -0.000000000   8.442241910  -0.000023826
  -0.000000000  -0.000023826   8.442213177
  Ni  Mg  O
  4  28  32
Direct configuration=     2
   0.000000000   0.000027389   0.000184362
   0.000000000   0.499972611   0.499815638
   0.000000000   0.250000000   0.250000000
   0.500000000   0.250000000   0.750000000
   0.000000000   0.000406945   0.499813931
   0.000000000   0.499593055   0.000186069
   0.500000000   0.000577115   0.999313899
   0.500000000   0.000337982   0.500657572
   0.500000000   0.499662018   0.999342428
   0.500000000   0.499422885   0.500686101
   0.000000000   0.250000000   0.750000000
   0.000000000   0.750000000   0.250000000
   0.000000000   0.750000000   0.750000000
   0.500000000   0.250000000   0.250000000
   0.500000000   0.750000000   0.250000000
   0.500000000   0.750000000   0.750000000
   0.249264626   0.000248124   0.249464665
   0.250096928   0.000458443   0.750421306
   0.249264626   0.499751876   0.250535335
   0.250096928   0.499541557   0.749578694
   0.750735374   0.000248124   0.249464665
   0.749903072   0.000458443   0.750421306
   0.750735374   0.499751876   0.250535335
   0.749903072   0.499541557   0.749578694
   0.249752647   0.249582356   0.999761379
   0.249752647   0.250417644   0.500238621
   0.249625813   0.750479973   0.999965241
   0.249625813   0.749520027   0.500034759
   0.750247353   0.249582356   0.999761379
   0.750247353   0.250417644   0.500238621
   0.750374187   0.750479973   0.999965241
   0.750374187   0.749520027   0.500034759
   0.250591435   0.250000000   0.250000000
   0.248375496   0.250000000   0.750000000
   0.249560327   0.750000000   0.250000000
   0.250080871   0.750000000   0.750000000
   0.749408565   0.250000000   0.250000000
   0.751624504   0.250000000   0.750000000
   0.750439673   0.750000000   0.250000000
   0.749919129   0.750000000   0.750000000
   0.250508244   0.000215801   0.000326442
   0.249423136   0.000079823   0.499923625
   0.249423136   0.499920177   0.000076375
   0.250508244   0.499784199   0.499673558
   0.749491756   0.000215801   0.000326442
   0.750576864   0.000079823   0.499923625
   0.750576864   0.499920177   0.000076375
   0.749491756   0.499784199   0.499673558
   0.000000000   0.251082302   0.999592313
   0.000000000   0.248917698   0.500407687
   0.000000000   0.748830993   0.000372044
   0.000000000   0.751169007   0.499627956
   0.500000000   0.249606651   0.001839866
   0.500000000   0.250393349   0.498160134
   0.500000000   0.750314213   0.999826786
   0.500000000   0.749685787   0.500173214
   0.000000000   0.000075415   0.251012119
   0.000000000   0.000499653   0.748772329
   0.000000000   0.499924585   0.248987881
   0.000000000   0.499500347   0.751227671
   0.500000000   0.000664942   0.249654608
   0.500000000   0.999031618   0.750348835
   0.500000000   0.499335058   0.250345392
   0.500000000   0.500968382   0.749651165
Mg28Ni4O32
   1.00000000
   8.442702697  -0.000000000  -0.000000000
  -0.000000000   8.442788614  -0.000030406
  -0.000000000  -0.000030406   8.442753618
  Ni  Mg  O
  4  28  32
Direct configuration=     3
   0.000000000   0.000045110   0.000185779
   0.000000000   0.499954890   0.499814221
   0.000000000   0.250000000   0.250000000
   0.500000000   0.250000000   0.750000000
   0.000000000   0.000469437   0.499814302
   0.000000000   0.499530563   0.000185698
   0.500000000   0.000653072   0.999286317
   0.500000000   0.000380312   0.500681315
   0.500000000   0.499619688   0.999318685
   0.500000000   0.499346928   0.500713683
   0.000000000   0.250000000   0.750000000
   0.000000000   0.750000000   0.250000000
   0.000000000   0.750000000   0.750000000
   0.500000000   0.250000000   0.250000000
   0.500000000   0.750000000   0.250000000
   0.500000000   0.750000000   0.750000000
   0.249205828   0.000304142   0.249440966
   0.250060570   0.000508728   0.750430167
   0.249205828   0.499695858   0.250559034
   0.250060570   0.499491272   0.749569833
   0.750794172   0.000304142   0.249440966
   0.749939430   0.000508728   0.750430167
   0.750794172   0.499695858   0.250559034
   0.749939430   0.499491272   0.749569833
   0.249706832   0.249577259   0.999764852
   0.249706832   0.250422741   0.500235148
   0.249582121   0.750495909   0.999963144
   0.249582121   0.749504091   0.500036856
   0.750293168   0.249577259   0.999764852
   0.750293168   0.250422741   0.500235148
   0.750417879   0.750495909   0.999963144
   0.750417879   0.749504091   0.500036856
   0.250564610   0.250000000   0.250000000
   0.248238912   0.250000000   0.750000000
   0.249486478   0.750000000   0.250000000
   0.250050720   0.750000000   0.750000000
   0.749435390   0.250000000   0.250000000
   0.751761088   0.250000000   0.750000000
   0.750513522   0.750000000   0.250000000
   0.749949280   0.750000000   0.750000000
   0.250503114   0.000256980   0.000344527
   0.249404199   0.000104780   0.499931365
   0.249404199   0.499895220   0.000068635
   0.250503114   0.499743020   0.499655473
   0.749496886   0.000256980   0.000344527
   0.750595801   0.000104780   0.499931365
   0.750595801   0.499895220   0.000068635
   0.749496886   0.499743020   0.499655473
   0.000000000   0.251129126   0.999595075
   0.000000000   0.248870874   0.500404925
   0.000000000   0.748771819   0.000411268
   0.000000000   0.751228181   0.499588732
   0.500000000   0.249574286   0.001958935
   0.500000000   0.250425714   0.498041065
   0.500000000   0.750347559   0.999816681
   0.500000000   0.749652441   0.500183319
   0.000000000   0.000127736   0.251059243
   0.000000000   0.000524271   0.748716051
   0.000000000   0.499872264   0.248940757
   0.000000000   0.499475729   0.751283949
   0.500000000   0.000690840   0.249625429
   0.500000000   0.999000475   0.750384434
   0.500000000   0.499309160   0.250374571
   0.500000000   0.500999525   0.749615566
Mg28Ni4O32
   1.00000000
   8.451243479  -0.000000000  -0.000000000
  -0.000000000   8.451611231  -0.000138356
  -0.000000000  -0.000138356   8.451477858
  Ni  Mg  O
  4  28  32
Direct configuration=     4
   1.000000000   0.000339026   0.000127137
   1.000000000   0.499660974   0.499872863
   0.000000000   0.250000000   0.250000000
   0.500000000   0.250000000   0.750000000
   1.000000000   0.001326190   0.499904434
   1.000000000   0.498673810   0.000095566
   0.500000000   0.001657125   0.999162740
   0.500000000   0.000926663   0.500757466
   0.500000000   0.499073337   0.999242534
   0.500000000   0.498342875   0.500837260
   0.000000000   0.250000000   0.750000000
   1.000000000   0.750000000   0.250000000
   1.000000000   0.750000000   0.750000000
   0.500000000   0.250000000   0.250000000
   0.500000000   0.750000000   0.250000000
   0.500000000   0.750000000   0.750000000
   0.248561471   0.001129320   0.249301586
   0.249387323   0.001137097   0.750381775
   0.248561471   0.498870680   0.250698414
   0.249387323   0.498862903   0.749618225
   0.751438529   0.001129320   0.249301586
   0.750612677   0.001137097   0.750381775
   0.751438529   0.498870680   0.250698414
   0.750612677   0.498862903   0.749618225
   0.249036074   0.249696336   0.999945227
   0.249036074   0.250303664   0.500054773
   0.249024823   0.750534135   0.999952218
   0.249024823   0.749465865   0.500047782
   0.750963926   0.249696336   0.999945227
   0.750963926   0.250303664   0.500054773
   0.750975177   0.750534135   0.999952218
   0.750975177   0.749465865   0.500047782
   0.249806226   0.250000000   0.250000000
   0.246721720   0.250000000   0.750000000
   0.248440159   0.750000000   0.250000000
   0.249473675   0.750000000   0.750000000
   0.750193774   0.250000000   0.250000000
   0.753278280   0.250000000   0.750000000
   0.751559841   0.750000000   0.250000000
   0.750526325   0.750000000   0.750000000
   0.250125839   0.000867840   0.000484365
   0.249372883   0.000508879   0.500100235
   0.249372883   0.499491121   0.999899765
   0.250125839   0.499132160   0.499515635
   0.749874161   0.000867840   0.000484365
   0.750627117   0.000508879   0.500100235
   0.750627117   0.499491121   0.999899765
   0.749874161   0.499132160   0.499515635
   1.000000000   0.251380517   0.999840605
   1.000000000   0.248619483   0.500159395
   1.000000000   0.748342252   0.000886118
   1.000000000   0.751657748   0.499113882
   0.500000000   0.249240338   0.003059353
   0.500000000   0.250759662   0.496940647
   0.500000000   0.750753690   0.999736451
   0.500000000   0.749246310   0.500263549
   1.000000000   0.001009468   0.251358718
   1.000000000   0.000692860   0.748371613
   1.000000000   0.498990532   0.248641282
   1.000000000   0.499307140   0.751628387
   0.500000000   0.000806357   0.249314530
   0.500000000   0.999006999   0.750807055
   0.500000000   0.499193643   0.250685470
   0.500000000   0.500993001   0.749192945
Mg28Ni4O32
   1.00000000
   8.457195997  -0.000000000  -0.000000000
  -0.000000000   8.457761301  -0.000214719
  -0.000000000  -0.000214719   8.457561167
  Ni  Mg  O
  4  28  32
Direct configuration=     5
   1.000000000   0.000527670   0.000056881
   1.000000000   0.499472330   0.499943119
   1.000000000   0.250000000   0.250000000
   0.500000000   0.250000000   0.750000000
   1.000000000   0.001746588   0.499994140
   1.000000000   0.498253412   0.000005860
   0.500000000   0.002131785   0.999271947
   0.500000000   0.001172456   0.500632032
   0.500000000   0.498827544   0.999367968
   0.500000000   0.497868215   0.500728053
   1.000000000   0.250000000   0.750000000
   1.000000000   0.750000000   0.250000000
   1.000000000   0.750000000   0.750000000
   0.500000000   0.250000000   0.250000000
   0.500000000   0.750000000   0.250000000
   0.500000000   0.750000000   0.750000000
   0.248333676   0.001572316   0.249349609
   0.248929889   0.001412699   0.750259413
   0.248333676   0.498427684   0.250650391
   0.248929889   0.498587301   0.749740587
   0.751666324   0.001572316   0.249349609
   0.751070111   0.001412699   0.750259413
   0.751666324   0.498427684   0.250650391
   0.751070111   0.498587301   0.749740587
   0.248656869   0.249876082   0.000123521
   0.248656869   0.250123918   0.499876479
   0.248772518   0.750441977   0.999967039
   0.248772518   0.749558023   0.500032961
   0.751343131   0.249876082   0.000123521
   0.751343131   0.250123918   0.499876479
   0.751227482   0.750441977   0.999967039
   0.751227482   0.749558023   0.500032961
   0.249168160   0.250000000   0.250000000
   0.246194608   0.250000000   0.750000000
   0.247887823   0.750000000   0.250000000
   0.249055368   0.750000000   0.750000000
   0.750831840   0.250000000   0.250000000
   0.753805392   0.250000000   0.750000000
   0.752112177   0.750000000   0.250000000
   0.750944632   0.750000000   0.750000000
   0.249693902   0.001222563   0.000478813
   0.249508109   0.000772111   0.500223405
   0.249508109   0.499227889   0.999776595
   0.249693902   0.498777437   0.499521187
   0.750306098   0.001222563   0.000478813
   0.750491891   0.000772111   0.500223405
   0.750491891   0.499227889   0.999776595
   0.750306098   0.498777437   0.499521187
   1.000000000   0.251244533   0.000090411
   1.000000000   0.248755467   0.499909589
   1.000000000   0.748369670   0.001074064
   1.000000000   0.751630330   0.498925936
   0.500000000   0.249171440   0.003250948
   0.500000000   0.250828560   0.496749052
   0.500000000   0.750919441   0.999739237
   0.500000000   0.749080559   0.500260763
   1.000000000   0.001589273   0.251286815
   1.000000000   0.000665702   0.748479562
   1.000000000   0.498410727   0.248713185
   1.000000000   0.499334298   0.751520438
   0.500000000   0.000715448   0.249232319
   0.500000000   0.999357566   0.750966031
   0.500000000   0.499284552   0.250767681
   0.500000000   0.500642434   0.749033969
Mg28Ni4O32
   1.00000000
   8.463910130   0.000000000  -0.000000000
   0.000000000   8.464698839  -0.000301654
  -0.000000000  -0.000301654   8.464424243
  Ni  Mg  O
  4  28  32
Direct configuration=     6
   1.000000000   0.000693021   0.999993387
   1.000000000   0.499306979   0.500006613
   1.000000000   0.250000000   0.250000000
   0.500000000   0.250000000   0.750000000
   1.000000000   0.001977706   0.500072413
   1.000000000   0.498022294   0.999927587
   0.500000000   0.002387844   0.999503808
   0.500000000   0.001286826   0.500403399
   0.500000000   0.498713174   0.999596601
   0.500000000   0.497612156   0.500496192
   1.000000000   0.250000000   0.750000000
   1.000000000   0.750000000   0.250000000
   1.000000000   0.750000000   0.750000000
   0.500000000   0.250000000   0.250000000
   0.500000000   0.750000000   0.250000000
   0.500000000   0.750000000   0.750000000
   0.248267349   0.001853442   0.249482924
   0.248532810   0.001544768   0.750115994
   0.248267349   0.498146558   0.250517076
   0.248532810   0.498455232   0.749884006
   0.751732651   0.001853442   0.249482924
   0.751467190   0.001544768   0.750115994
   0.751732651   0.498146558   0.250517076
   0.751467190   0.498455232   0.749884006
   0.248364104   0.250089797   0.000312704
   0.248364104   0.249910203   0.499687296
   0.248643229   0.750292319   0.000008275
   0.248643229   0.749707681   0.499991725
   0.751635896   0.250089797   0.000312704
   0.751635896   0.249910203   0.499687296
   0.751356771   0.750292319   0.000008275
   0.751356771   0.749707681   0.499991725
   0.248544743   0.250000000   0.250000000
   0.246095798   0.250000000   0.750000000
   0.247521572   0.750000000   0.250000000
   0.248655377   0.750000000   0.750000000
   0.751455257   0.250000000   0.250000000
   0.753904202   0.250000000   0.750000000
   0.752478428   0.750000000   0.250000000
   0.751344623   0.750000000   0.750000000
   0.249141284   0.001508867   0.000399149
   0.249729412   0.001015781   0.500327366
   0.249729412   0.498984219   0.999672634
   0.249141284   0.498491133   0.499600851
   0.750858716   0.001508867   0.000399149
   0.750270588   0.001015781   0.500327366
   0.750270588   0.498984219   0.999672634
   0.750858716   0.498491133   0.499600851
   1.000000000   0.250913780   0.000340280
   1.000000000   0.249086220   0.499659720
   1.000000000   0.748599845   0.001128991
   1.000000000   0.751400155   0.498871009
   0.500000000   0.249260566   0.003013264
   0.500000000   0.250739434   0.496986736
   0.500000000   0.750980194   0.999785665
   0.500000000   0.749019806   0.500214335
   1.000000000   0.002112792   0.251047797
   1.000000000   0.000544669   0.748804662
   1.000000000   0.497887208   0.248952203
   1.000000000   0.499455331   0.751195338
   0.500000000   0.000535032   0.249272254
   0.500000000   0.999995083   0.751000923
   0.500000000   0.499464968   0.250727746
   0.500000000   0.500004917   0.748999077
Mg28Ni4O32
   1.00000000
   8.469772201   0.000000000  -0.000000000
   0.000000000   8.470756158  -0.000377939
  -0.000000000  -0.000377940   8.470416351
  Ni  Mg  O
  4  28  32
Direct configuration=     7
   1.000000000   0.000765832   0.999993364
   1.000000000   0.499234168   0.500006636
   1.000000000   0.250000000   0.250000000
   0.500000000   0.250000000   0.750000000
   1.000000000   0.001924500   0.500077329
   1.000000000   0.498075500   0.999922671
   0.500000000   0.002344222   0.999701102
   0.500000000   0.001234858   0.500229949
   0.500000000   0.498765142   0.999770051
   0.500000000   0.497655778   0.500298898
   1.000000000   0.250000000   0.750000000
   1.000000000   0.750000000   0.250000000
   1.000000000   0.750000000   0.750000000
   0.500000000   0.250000000   0.250000000
   0.500000000   0.750000000   0.250000000
   0.500000000   0.750000000   0.750000000
   0.248331360   0.001842797   0.249596574
   0.248390189   0.001504849   0.750066751
   0.248331360   0.498157203   0.250403426
   0.248390189   0.498495151   0.749933249
   0.751668640   0.001842797   0.249596574
   0.751609811   0.001504849   0.750066751
   0.751668640   0.498157203   0.250403426
   0.751609811   0.498495151   0.749933249
   0.248268392   0.250199689   0.000400602
   0.248268392   0.249800311   0.499599398
   0.248669951   0.750197263   0.000061542
   0.248669951   0.749802737   0.499938458
   0.751731608   0.250199689   0.000400602
   0.751731608   0.249800311   0.499599398
   0.751330049   0.750197263   0.000061542
   0.751330049   0.749802737   0.499938458
   0.248290977   0.250000000   0.250000000
   0.246362793   0.250000000   0.750000000
   0.247488245   0.750000000   0.250000000
   0.248469502   0.750000000   0.750000000
   0.751709023   0.250000000   0.250000000
   0.753637207   0.250000000   0.750000000
   0.752511755   0.750000000   0.250000000
   0.751530498   0.750000000   0.750000000
   0.248730651   0.001615338   0.000305791
   0.249883106   0.001138901   0.500348551
   0.249883106   0.498861099   0.999651449
   0.248730651   0.498384662   0.499694209
   0.751269349   0.001615338   0.000305791
   0.750116894   0.001138901   0.500348551
   0.750116894   0.498861099   0.999651449
   0.751269349   0.498384662   0.499694209
   1.000000000   0.250629469   0.000421018
   1.000000000   0.249370531   0.499578982
   1.000000000   0.748827968   0.001046447
   1.000000000   0.751172032   0.498953553
   0.500000000   0.249456134   0.002579275
   0.500000000   0.250543866   0.497420725
   0.500000000   0.750930624   0.999839033
   0.500000000   0.749069376   0.500160967
   1.000000000   0.002355340   0.250841255
   1.000000000   0.000424410   0.749097299
   1.000000000   0.497644660   0.249158745
   1.000000000   0.499575590   0.750902701
   0.500000000   0.000407690   0.249398594
   0.500000000   0.000609588   0.750917291
   0.500000000   0.499592310   0.250601406
   0.500000000   0.499390412   0.749082709
Mg28Ni4O32
   1.00000000
   8.478823982   0.000000000  -0.000000000
   0.000000000   8.480110058  -0.000495908
  -0.000000000  -0.000495909   8.479668550
  Ni  Mg  O
  4  28  32
Direct configuration=     8
   1.000000000   0.000780325   0.000081148
   1.000000000   0.499219675   0.499918852
   1.000000000   0.250000000   0.250000000
   0.500000000   0.250000000   0.750000000
   1.000000000   0.001576877   0.499991240
   1.000000000   0.498423123   0.000008760
   0.500000000   0.002029007   0.999888104
   0.500000000   0.001020962   0.500100726
   0.500000000   0.498979038   0.999899274
   0.500000000   0.497970993   0.500111896
   1.000000000   0.250000000   0.750000000
   1.000000000   0.750000000   0.250000000
   1.000000000   0.750000000   0.750000000
   0.500000000   0.250000000   0.250000000
   0.500000000   0.750000000   0.250000000
   0.500000000   0.750000000   0.750000000
   0.248494029   0.001539175   0.249694600
   0.248460978   0.001312071   0.750136129
   0.248494029   0.498460825   0.250305400
   0.248460978   0.498687929   0.749863871
   0.751505971   0.001539175   0.249694600
   0.751539022   0.001312071   0.750136129
   0.751505971   0.498460825   0.250305400
   0.751539022   0.498687929   0.749863871
   0.248317562   0.250213168   0.000392596
   0.248317562   0.249786832   0.499607404
   0.248834564   0.750160192   0.000146765
   0.248834564   0.749839808   0.499853235
   0.751682438   0.250213168   0.000392596
   0.751682438   0.249786832   0.499607404
   0.751165436   0.750160192   0.000146765
   0.751165436   0.749839808   0.499853235
   0.248384955   0.250000000   0.250000000
   0.246991797   0.250000000   0.750000000
   0.247759614   0.750000000   0.250000000
   0.248462605   0.750000000   0.750000000
   0.751615045   0.250000000   0.250000000
   0.753008203   0.250000000   0.750000000
   0.752240386   0.750000000   0.250000000
   0.751537395   0.750000000   0.750000000
   0.248331219   0.001587999   0.000191276
   0.249971602   0.001184019   0.500278086
   0.249971602   0.498815981   0.999721914
   0.248331219   0.498412001   0.499808724
   0.751668781   0.001587999   0.000191276
   0.750028398   0.001184019   0.500278086
   0.750028398   0.498815981   0.999721914
   0.751668781   0.498412001   0.499808724
   1.000000000   0.250376799   0.000308926
   1.000000000   0.249623201   0.499691074
   1.000000000   0.749042815   0.000824416
   1.000000000   0.750957185   0.499175584
   0.500000000   0.249805448   0.001911114
   0.500000000   0.250194552   0.498088886
   0.500000000   0.750782433   0.999896624
   0.500000000   0.749217567   0.500103376
   1.000000000   0.002408646   0.250678841
   1.000000000   0.000297649   0.749367378
   1.000000000   0.497591354   0.249321159
   1.000000000   0.499702351   0.750632622
   0.500000000   0.000337869   0.249628502
   0.500000000   0.001390518   0.750714576
   0.500000000   0.499662131   0.250371498
   0.500000000   0.498609482   0.749285424
Mg28Ni4O32
   1.00000000
   8.488457202   0.000000000  -0.000000000
   0.000000000   8.490067156  -0.000621831
  -0.000000000  -0.000621831   8.489515970
  Ni  Mg  O
  4  28  32
Direct configuration=     9
   1.000000000   0.000699382   0.000253678
   1.000000000   0.499300618   0.499746322
   1.000000000   0.250000000   0.250000000
   0.500000000   0.250000000   0.750000000
   1.000000000   0.001008105   0.499821684
   1.000000000   0.498991895   0.000178316
   0.500000000   0.001536669   0.999909285
   0.500000000   0.000721493   0.500156142
   0.500000000   0.499278507   0.999843858
   0.500000000   0.498463331   0.500090715
   1.000000000   0.250000000   0.750000000
   1.000000000   0.750000000   0.250000000
   1.000000000   0.750000000   0.750000000
   0.500000000   0.250000000   0.250000000
   0.500000000   0.750000000   0.250000000
   0.500000000   0.750000000   0.750000000
   0.248681366   0.000991522   0.249690072
   0.248823530   0.001031409   0.750355315
   0.248681366   0.499008478   0.250309928
   0.248823530   0.498968591   0.749644685
   0.751318634   0.000991522   0.249690072
   0.751176470   0.001031409   0.750355315
   0.751318634   0.499008478   0.250309928
   0.751176470   0.498968591   0.749644685
   0.248561868   0.250059659   0.000223637
   0.248561868   0.249940341   0.499776363
   0.249086163   0.750251913   0.000216925
   0.249086163   0.749748087   0.499783075
   0.751438132   0.250059659   0.000223637
   0.751438132   0.249940341   0.499776363
   0.750913837   0.750251913   0.000216925
   0.750913837   0.749748087   0.499783075
   0.248999690   0.250000000   0.250000000
   0.247712765   0.250000000   0.750000000
   0.248322401   0.750000000   0.250000000
   0.248789995   0.750000000   0.750000000
   0.751000310   0.250000000   0.250000000
   0.752287235   0.250000000   0.750000000
   0.751677599   0.750000000   0.250000000
   0.751210005   0.750000000   0.750000000
   0.248250713   0.001353455   0.000141363
   0.249866368   0.001053707   0.500103085
   0.249866368   0.498946293   0.999896915
   0.248250713   0.498646545   0.499858637
   0.751749287   0.001353455   0.000141363
   0.750133632   0.001053707   0.500103085
   0.750133632   0.498946293   0.999896915
   0.751749287   0.498646545   0.499858637
   1.000000000   0.250392772   0.999946274
   0.000000000   0.249607228   0.500053726
   1.000000000   0.749046978   0.000561950
   0.000000000   0.750953022   0.499438050
   0.500000000   0.250124143   0.001395088
   0.500000000   0.249875857   0.498604912
   0.500000000   0.750608078   0.999899068
   0.500000000   0.749391922   0.500100932
   1.000000000   0.002110353   0.250738704
   1.000000000   0.000262933   0.749371146
   1.000000000   0.497889647   0.249261296
   1.000000000   0.499737067   0.750628854
   0.500000000   0.000420071   0.249829902
   0.500000000   0.001847548   0.750493142
   0.500000000   0.499579929   0.250170098
   0.500000000   0.498152452   0.749506858
Mg28Ni4O32
   1.00000000
   8.494846893   0.000000000  -0.000000000
   0.000000000   8.496676830  -0.000706587
  -0.000000000  -0.000706588   8.496051125
  Ni  Mg  O
  4  28  32
Direct configuration=     10
   1.000000000   0.000564186   0.000410302
   1.000000000   0.499435814   0.499589698
   1.000000000   0.250000000   0.250000000
   0.500000000   0.250000000   0.750000000
   1.000000000   0.000513592   0.499677157
   1.000000000   0.499486408   0.000322843
   0.500000000   0.001137750   0.999752297
   0.500000000   0.000508779   0.500371049
   0.500000000   0.499491221   0.999628951
   0.500000000   0.498862250   0.500247703
   1.000000000   0.250000000   0.750000000
   1.000000000   0.750000000   0.250000000
   1.000000000   0.750000000   0.750000000
   0.500000000   0.250000000   0.250000000
   0.500000000   0.750000000   0.250000000
   0.500000000   0.750000000   0.750000000
   0.248815080   0.000495375   0.249596578
   0.249296214   0.000811036   0.750591094
   0.248815080   0.499504625   0.250403422
   0.249296214   0.499188964   0.749408906
   0.751184920   0.000495375   0.249596578
   0.750703786   0.000811036   0.750591094
   0.751184920   0.499504625   0.250403422
   0.750703786   0.499188964   0.749408906
   0.248898863   0.249833677   0.999976140
   0.248898863   0.250166323   0.500023860
   0.249292363   0.750413968   0.000219951
   0.249292363   0.749586032   0.499780049
   0.751101137   0.249833677   0.999976140
   0.751101137   0.250166323   0.500023860
   0.750707637   0.750413968   0.000219951
   0.750707637   0.749586032   0.499780049
   0.249826844   0.250000000   0.250000000
   0.248158191   0.250000000   0.750000000
   0.248900255   0.750000000   0.250000000
   0.249343100   0.750000000   0.750000000
   0.750173156   0.250000000   0.250000000
   0.751841809   0.250000000   0.750000000
   0.751099745   0.750000000   0.250000000
   0.750656900   0.750000000   0.750000000
   0.248581802   0.000994538   0.000195151
   0.249613998   0.000772822   0.499914666
   0.249613998   0.499227178   0.000085334
   0.248581802   0.499005462   0.499804849
   0.751418198   0.000994538   0.000195151
   0.750386002   0.000772822   0.499914666
   0.750386002   0.499227178   0.000085334
   0.751418198   0.499005462   0.499804849
   1.000000000   0.250676507   0.999527254
   0.000000000   0.249323493   0.500472746
   1.000000000   0.748847538   0.000417254
   0.000000000   0.751152462   0.499582746
   0.500000000   0.250204051   0.001311285
   0.500000000   0.249795949   0.498688715
   0.500000000   0.750518172   0.999825200
   0.500000000   0.749481828   0.500174800
   1.000000000   0.001568586   0.250986443
   1.000000000   0.000334758   0.749107490
   1.000000000   0.498431414   0.249013557
   1.000000000   0.499665242   0.750892510
   0.500000000   0.000593099   0.249862116
   0.500000000   0.001658342   0.750394484
   0.500000000   0.499406901   0.250137884
   0.500000000   0.498341658   0.749605516
Mg28Ni4O32
   1.00000000
   8.496584624   0.000000000  -0.000000000
   0.000000000   8.498482200  -0.000732064
  -0.000000000  -0.000732065   8.497834184
  Ni  Mg  O
  4  28  32
Direct configuration=     11
   1.000000000   0.000469097   0.000448785
   1.000000000   0.499530903   0.499551215
   1.000000000   0.250000000   0.250000000
   0.500000000   0.250000000   0.750000000