Mg28Ni4O32
   1.00000000
   8.440355739   0.000000572   0.000004397
   0.000000572   8.440346695  -0.000005969
   0.000004397  -0.000005969   8.440334937
  Ni  Mg  O
  4  28  32
Direct configuration=     1
   0.000047768   0.000118600   0.999996923
   0.999911077   0.249981251   0.249911946
   0.249952232   0.999881400   0.750003077
   0.250088923   0.750018749   0.500088054
   0.000192563   0.999976581   0.499980191
   0.000005866   0.499907861   0.000105396
   0.000050554   0.499993036   0.499889042
   0.499927094   0.999995609   0.999935883
   0.499803654   0.999915673   0.500085593
   0.500020575   0.500027316   0.000000979
   0.499935606   0.500081635   0.499992553
   0.000083235   0.249814879   0.750059112
   0.000094512   0.750064445   0.250046883
   0.000166249   0.750164392   0.749980096
   0.499980982   0.250001318   0.250018008
   0.499953881   0.249976402   0.749974055
   0.499918367   0.749977528   0.250092280
   0.499834197   0.750037855   0.749914841
   0.249807437   0.000023419   0.250019809
   0.249949446   0.500006964   0.250110958
   0.249994134   0.500092139   0.749894604
   0.750196346   0.000084327   0.249914407
   0.750072906   0.000004391   0.750064117
   0.750064394   0.499918365   0.250007447
   0.749979425   0.499972684   0.749999021
   0.249833751   0.249835608   0.000019904
   0.249905488   0.249935555   0.499953117
   0.249916765   0.750185121   0.999940888
   0.750165803   0.249962145   0.000085159
   0.750081633   0.250022472   0.499907720
   0.750046119   0.750023598   0.000025945
   0.750019018   0.749998682   0.499981992
   0.250210548   0.249906069   0.250007564
   0.249901834   0.250152453   0.749998925
   0.249955251   0.750035130   0.249782834
   0.249966534   0.749913734   0.750179570
   0.749831635   0.249928385   0.249953891
   0.750053374   0.249914466   0.750008853
   0.750046408   0.750029337   0.250044968
   0.750006268   0.750090450   0.749943694
   0.250099470   0.999963663   0.000116883
   0.249981156   0.000131316   0.499929439
   0.249917952   0.500045881   0.999919541
   0.249992697   0.499814316   0.500085938
   0.749861514   0.000038272   0.999975052
   0.750032514   0.999939931   0.500070612
   0.750079797   0.499991951   0.999997692
   0.750014639   0.500053580   0.500004940
   0.000033466   0.250086266   0.999820430
   0.000044749   0.249964870   0.500217166
   0.000098166   0.749847547   0.000001075
   0.999789452   0.750093931   0.499992436
   0.499993732   0.249909550   0.000056306
   0.499953592   0.249970663   0.499955032
   0.499946626   0.750085534   0.999991147
   0.500168365   0.750071615   0.500046109
   0.000018844   0.999868684   0.250070561
   0.999900530   0.000036337   0.749883117
   0.000007303   0.500185684   0.249914062
   0.000082048   0.499954119   0.750080459
   0.499967486   0.000060069   0.249929388
   0.500138486   0.999961728   0.750024948
   0.499985361   0.499946420   0.249995060
   0.499920203   0.500008049   0.750002308
Mg28Ni4O32
   1.00000000
   8.442323511   0.000004037   0.000029137
   0.000004037   8.442265058  -0.000040010
   0.000029137  -0.000040010   8.442188511
  Ni  Mg  O
  4  28  32
Direct configuration=     2
   0.000264926   0.000644398   0.999963646
   0.999507067   0.249896509   0.249516151
   0.249735074   0.999355602   0.750036354
   0.250492933   0.750103491   0.500483849
   0.001066010   0.999856411   0.499905871
   0.000106227   0.499520619   0.000543661
   0.000280828   0.499966526   0.499430381
   0.499592981   0.999987635   0.999672979
   0.498918587   0.999556702   0.500456846
   0.500048099   0.500149749   0.000003840
   0.499638114   0.500425234   0.499960599
   0.000498529   0.248964911   0.750307399
   0.000543505   0.750369746   0.250256100
   0.000914877   0.750908955   0.749897888
   0.499851518   0.249936752   0.250090327
   0.499720061   0.249852984   0.749859366
   0.499534032   0.749941798   0.250487497
   0.499090966   0.750235012   0.749555098
   0.248933990   0.000143589   0.250094129
   0.249719172   0.500033474   0.250569619
   0.249893773   0.500479381   0.749456339
   0.751081413   0.000443298   0.249543154
   0.750407019   0.000012365   0.750327021
   0.750361886   0.499574766   0.250039401
   0.749951901   0.499850251   0.749996160
   0.249085123   0.249091045   0.000102112
   0.249456495   0.249630254   0.499743900
   0.249501471   0.751035089   0.999692601
   0.750909034   0.249764988   0.000444902
   0.750465968   0.250058202   0.499512503
   0.750279939   0.750147016   0.000140634
   0.750148482   0.750063248   0.499909673
   0.251102157   0.249462967   0.250029212
   0.249450159   0.250781233   0.750011804
   0.249749990   0.750199237   0.248838604
   0.249806830   0.749573511   0.750976579
   0.749120939   0.249600529   0.249726096
   0.750298902   0.249524266   0.750063265
   0.750263554   0.750161414   0.250224979
   0.750040843   0.750499264   0.749718981
   0.250486865   0.999819781   0.000631467
   0.249877715   0.000696190   0.499627773
   0.249546513   0.500232259   0.999580749
   0.249948452   0.498992760   0.500448591
   0.749297942   0.000232849   0.999880601
   0.750202227   0.999702120   0.500366295
   0.750447369   0.499929124   0.000011169
   0.750087840   0.500265300   0.499997761
   0.000193170   0.250426489   0.999023421
   0.000250010   0.249800763   0.501161396
   0.000549841   0.749218767   0.999988196
   0.998897843   0.750537033   0.499970788
   0.499959157   0.249500736   0.000281019
   0.499736446   0.249838586   0.499775021
   0.499701098   0.750475734   0.999936735
   0.500879061   0.750399471   0.500273904
   0.000122285   0.999303810   0.250372227
   0.999513135   0.000180219   0.749368533
   0.000051548   0.501007240   0.249551409
   0.000453487   0.499767741   0.750419251
   0.499797773   0.000297880   0.249633705
   0.500702058   0.999767151   0.750119399
   0.499912160   0.499734700   0.250002239
   0.499552631   0.500070876   0.749988831
Mg28Ni4O32
   1.00000000
   8.442909304   0.000005325   0.000036792
   0.000005325   8.442836400  -0.000050844
   0.000036792  -0.000050844   8.442740667
  Ni  Mg  O
  4  28  32
Direct configuration=     3
   0.000289902   0.000694478   0.999942661
   0.999458245   0.249887213   0.249472465
   0.249710098   0.999305522   0.750057339
   0.250541755   0.750112787   0.500527535
   0.001164241   0.999831379   0.499911283
   0.000181026   0.499506406   0.000556670
   0.000305944   0.499968656   0.499417186
   0.499554756   0.999996940   0.999667742
   0.498823904   0.999539464   0.500484006
   0.499994442   0.500163126   0.000002354
   0.499602482   0.500439408   0.499959204
   0.000576237   0.248860624   0.750315102
   0.000611186   0.750413344   0.250276548
   0.000991520   0.750992371   0.749895756
   0.499800529   0.249868367   0.250090185
   0.499671885   0.249826368   0.749848842
   0.499478855   0.749995738   0.250510168
   0.499017122   0.750276996   0.749541087
   0.248835759   0.000168621   0.250088717
   0.249694056   0.500031344   0.250582814
   0.249818974   0.500493594   0.749443330
   0.751176096   0.000460536   0.249515994
   0.750445244   0.000003060   0.750332258
   0.750397518   0.499560592   0.250040796
   0.750005558   0.499836874   0.749997646
   0.249008480   0.249007629   0.000104244
   0.249388814   0.249586656   0.499723452
   0.249423763   0.751139376   0.999684898
   0.750982878   0.249723004   0.000458913
   0.750521145   0.250004262   0.499489832
   0.750328115   0.750173632   0.000151158
   0.750199471   0.750131633   0.499909815
   0.251141860   0.249399089   0.250019081
   0.249395966   0.250794218   0.750029713
   0.249725485   0.750222930   0.248770388
   0.249781032   0.749582800   0.751047501
   0.749090765   0.249559703   0.249685787
   0.750330635   0.249477684   0.750080739
   0.750295085   0.750179369   0.250223097
   0.750054042   0.750544068   0.749722379
   0.250470793   0.999824514   0.000674531
   0.249850434   0.000729050   0.499611030
   0.249505836   0.500232809   0.999566839
   0.249930912   0.498920374   0.500463185
   0.749293877   0.000271033   0.999886457
   0.750241993   0.999707555   0.500376363
   0.750494429   0.499899697   0.000032519
   0.750105214   0.500260967   0.499972242
   0.000218968   0.250417200   0.998952499
   0.000274515   0.249777070   0.501229612
   0.000604034   0.749205782   0.999970287
   0.998858140   0.750600911   0.499980919
   0.499945958   0.249455932   0.000277621
   0.499704915   0.249820631   0.499776903
   0.499669365   0.750522316   0.999919261
   0.500909235   0.750440297   0.500314213
   0.000149566   0.999270950   0.250388970
   0.999529207   0.000175486   0.749325469
   0.000069088   0.501079626   0.249536815
   0.000494164   0.499767191   0.750433161
   0.499758007   0.000292445   0.249623637
   0.500706123   0.999728967   0.750113543
   0.499894786   0.499739033   0.250027758
   0.499505571   0.500100303   0.749967481
Mg28Ni4O32
   1.00000000
   8.450606509   0.000022985   0.000138158
   0.000022985   8.450344162  -0.000194945
   0.000138158  -0.000194945   8.449996510
  Ni  Mg  O
  4  28  32
Direct configuration=     4
   0.000511808   0.001098146   0.999658787
   0.998993209   0.249811371   0.249081489
   0.249488192   0.998901854   0.750341213
   0.251006791   0.750188629   0.500918511
   0.002058283   0.999548338   0.500029280
   0.001177028   0.499539829   0.000483336
   0.000517381   0.500020773   0.499497100
   0.499216760   0.000131280   0.999745465
   0.497995582   0.999515702   0.500651505
   0.499218856   0.500286460   0.999976568
   0.499287249   0.500430229   0.499962826
   0.001428906   0.247869582   0.750266770
   0.001311719   0.750847396   0.250446042
   0.001631418   0.751744131   0.749914210
   0.499156812   0.248937114   0.250045684
   0.499121789   0.249533168   0.749764761
   0.498923719   0.750785469   0.250594396
   0.498416487   0.750740385   0.749573001
   0.247941717   0.000451662   0.249970720
   0.249482619   0.499979227   0.250502900
   0.248822972   0.500460171   0.749516664
   0.752004418   0.000484298   0.249348495
   0.750783240   0.999868720   0.750254535
   0.750712751   0.499569771   0.250037174
   0.750781144   0.499713540   0.750023432
   0.248368582   0.248255869   0.000085790
   0.248688281   0.249152604   0.499553958
   0.248571094   0.752130418   0.999733230
   0.751583513   0.249259615   0.000426999
   0.751076281   0.249214531   0.499405604
   0.750878211   0.750466832   0.000235239
   0.750843188   0.751062886   0.499954316
   0.251142522   0.248750458   0.249852163
   0.248892049   0.250583280   0.750280845
   0.249494887   0.750473198   0.248376762
   0.249494154   0.749924462   0.751580951
   0.749095054   0.249154059   0.249252157
   0.750647538   0.249030524   0.750287523
   0.750626978   0.750386887   0.250087572
   0.750248946   0.750948592   0.749910580
   0.249995814   0.999986619   0.000981601
   0.249522925   0.000845613   0.499555249
   0.249140368   0.500123100   0.999575058
   0.249686237   0.498386936   0.500454316
   0.749587097   0.000687051   0.000021162
   0.750715330   0.999930234   0.500337682
   0.750958349   0.499523864   0.000318428
   0.750332023   0.500074169   0.499623454
   0.000505846   0.250075538   0.998419049
   0.000505113   0.249526802   0.501623238
   0.001107951   0.749416720   0.999719155
   0.998857478   0.751249542   0.500147837
   0.499751054   0.249051408   0.000089420
   0.499373022   0.249613113   0.499912428
   0.499352462   0.750969476   0.999712477
   0.500904946   0.750845941   0.500747843
   0.000477075   0.999154387   0.250444751
   0.000004186   0.000013381   0.749018399
   0.000313763   0.501613064   0.249545684
   0.000859632   0.499876900   0.750424942
   0.499284670   0.000069766   0.249662318
   0.500412903   0.999312949   0.749978838
   0.499667977   0.499925831   0.250376546
   0.499041651   0.500476136   0.749681572
Mg28Ni4O32
   1.00000000
   8.456058270   0.000036234   0.000210604
   0.000036234   8.455661491  -0.000298399
   0.000210604  -0.000298400   8.455134589
  Ni  Mg  O
  4  28  32
Direct configuration=     5
   0.000579662   0.001203507   0.999474491
   0.998798140   0.249798644   0.248940461
   0.249420338   0.998796493   0.750525509
   0.251201860   0.750201356   0.501059539
   0.002397099   0.999404427   0.500122785
   0.001779471   0.499690781   0.000303971
   0.000569329   0.500073425   0.499682598
   0.499111022   0.000216625   0.999870869
   0.497714117   0.999624861   0.500648859
   0.498706438   0.500339096   0.999953950
   0.499197612   0.500305715   0.499982926
   0.001844500   0.247462863   0.750140243
   0.001637890   0.751028001   0.250498133
   0.001807433   0.752015586   0.749951537
   0.498783305   0.248351780   0.249994564
   0.498825927   0.249398642   0.749741410
   0.498680869   0.751314700   0.250521568
   0.498268252   0.750952669   0.749736331
   0.247602901   0.000595573   0.249877215
   0.249430671   0.499926575   0.250317402
   0.248220529   0.500309219   0.749696029
   0.752285883   0.000375139   0.249351141
   0.750888978   0.999783375   0.750129131
   0.750802388   0.499694285   0.250017074
   0.751293562   0.499660904   0.750046050
   0.248192567   0.247984414   0.000048463
   0.248362110   0.248971999   0.499501867
   0.248155500   0.752537137   0.999859757
   0.751731748   0.249047331   0.000263669
   0.751319131   0.248685300   0.499478432
   0.751174073   0.750601358   0.000258590
   0.751216695   0.751648220   0.500005436
   0.250806177   0.248460247   0.249720783
   0.248703321   0.250211951   0.750445448
   0.249402279   0.750604498   0.248440345
   0.249334360   0.750263005   0.751680677
   0.749335808   0.248958699   0.249046590
   0.750797876   0.248831536   0.750388092
   0.750799101   0.750532592   0.249941713
   0.750412602   0.751102799   0.750112911
   0.249539630   0.000150754   0.001023267
   0.249342845   0.000720206   0.499617439
   0.249007179   0.499982319   0.999693068
   0.249505957   0.498306545   0.500336703
   0.749981388   0.000876544   0.000128196
   0.750988373   0.000152908   0.500211626
   0.751170218   0.499307836   0.000483130
   0.750496150   0.499887257   0.499415762
   0.000665640   0.249736995   0.998319323
   0.000597721   0.249395502   0.501559655
   0.001296679   0.749788049   0.999554552
   0.999193823   0.751539753   0.500279217
   0.499587398   0.248897201   0.999887089
   0.499200899   0.249467408   0.500058287
   0.499202124   0.751168464   0.999611908
   0.500664192   0.751041301   0.500953410
   0.000657155   0.999279794   0.250382561
   0.000460370   0.999849246   0.748976733
   0.000494043   0.501693455   0.249663297
   0.000992821   0.500017681   0.750306932
   0.499011627   0.999847092   0.249788374
   0.500018612   0.999123456   0.749871804
   0.499503850   0.500112743   0.250584238
   0.498829782   0.500692164   0.749516870
Mg28Ni4O32
   1.00000000
   8.462400362   0.000052593   0.000295615
   0.000052594   8.461846084  -0.000420208
   0.000295616  -0.000420209   8.461108219
  Ni  Mg  O
  4  28  32
Direct configuration=     6
   0.000567183   0.001182666   0.999309670
   0.998696412   0.249827623   0.248894377
   0.249432817   0.998817334   0.750690330
   0.251303588   0.750172377   0.501105623
   0.002535205   0.999317500   0.500203939
   0.002231001   0.499921750   0.000063244
   0.000535957   0.500143770   0.499923230
   0.499117484   0.000281714   0.000022839
   0.497647069   0.999820202   0.500569518
   0.498269485   0.500374341   0.999925836
   0.499232157   0.500100841   0.500021675
   0.002076504   0.247267253   0.749944196
   0.001827867   0.751097456   0.250508530
   0.001770954   0.752095950   0.750000855
   0.498506765   0.247875393   0.249934676
   0.498609114   0.249344906   0.749740275
   0.498562023   0.751772483   0.250363297
   0.498336235   0.751033101   0.750012981
   0.247464795   0.000682500   0.249796061
   0.249464043   0.499856230   0.250076770
   0.247768999   0.500078250   0.749936756
   0.752352931   0.000179798   0.249430482
   0.750882516   0.999718286   0.749977161
   0.750767843   0.499899159   0.249978325
   0.751730515   0.499625659   0.750074164
   0.248229046   0.247904050   0.999999145
   0.248172133   0.248902544   0.499491470
   0.247923496   0.752732747   0.000055804
   0.751663765   0.248966899   0.999987019
   0.751437977   0.248227517   0.499636703
   0.751390886   0.750655094   0.000259725
   0.751493235   0.752124607   0.500065324
   0.250209311   0.248310543   0.249579274
   0.248647055   0.249686370   0.750584049
   0.249360377   0.750713309   0.248760061
   0.249200554   0.750638828   0.751586376
   0.749726664   0.248812702   0.248935532
   0.750903785   0.248700792   0.750424830
   0.750938327   0.750716413   0.249778702
   0.750627038   0.751170185   0.750349312
   0.249023464   0.000342220   0.000945402
   0.249220565   0.000439337   0.499746919
   0.248962947   0.499803814   0.999880424
   0.249306145   0.498447496   0.500161031
   0.750490198   0.000950428   0.000216388
   0.751211011   0.000392927   0.500025689
   0.751305991   0.499160744   0.000583709
   0.750685514   0.499684089   0.499276801
   0.000799446   0.249361172   0.998413624
   0.000639623   0.249286691   0.501239939
   0.001352945   0.750313630   0.999415951
   0.999790689   0.751689457   0.500420726
   0.499372962   0.248829815   0.999650688
   0.499061673   0.249283587   0.500221298
   0.499096215   0.751299208   0.999575170
   0.500273336   0.751187298   0.501064468
   0.000779435   0.999560663   0.250253081
   0.000976536   0.999657780   0.749054598
   0.000693855   0.501552504   0.249838969
   0.001037053   0.500196186   0.750119576
   0.498788989   0.999607073   0.249974311
   0.499509802   0.999049572   0.749783612
   0.499314486   0.500315911   0.250723199
   0.498694009   0.500839256   0.749416291
Mg28Ni4O32
   1.00000000
   8.468256088   0.000068675   0.000374868
   0.000068675   8.467554606  -0.000534017
   0.000374868  -0.000534018   8.466618282
  Ni  Mg  O
  4  28  32
Direct configuration=     7
   0.000486317   0.001094688   0.999233174
   0.998693077   0.249888766   0.248923283
   0.249513683   0.998905312   0.750766826
   0.251306923   0.750111234   0.501076717
   0.002502880   0.999322489   0.500218369
   0.002308827   0.500098854   0.999915241
   0.000443518   0.500206686   0.500054950
   0.499215999   0.000292197   0.000102100
   0.497742539   0.999986411   0.500485288
   0.498116337   0.500393107   0.999903652
   0.499369928   0.499930799   0.500064923
   0.002035845   0.247287764   0.749775457
   0.001837703   0.751042385   0.250497728
   0.001596011   0.752013692   0.750031547
   0.498449625   0.247729330   0.249897941
   0.498543237   0.249399022   0.749749251
   0.498591597   0.751939710   0.250227156
   0.498542118   0.750935279   0.750269710
   0.247497120   0.000677511   0.249781631
   0.249556482   0.499793314   0.249945050
   0.247691173   0.499901146   0.750084759
   0.752257461   0.000013589   0.249514712
   0.750784001   0.999707803   0.749897900
   0.750630072   0.500069201   0.249935077
   0.751883663   0.499606893   0.750096348
   0.248403989   0.247986308   0.999968453
   0.248162297   0.248957615   0.499502272
   0.247964155   0.752712236   0.000224543
   0.751457882   0.249064721   0.999730290
   0.751408403   0.248060290   0.499772844
   0.751456763   0.750600978   0.000250749
   0.751550375   0.752270670   0.500102059
   0.249655976   0.248338727   0.249489945
   0.248712623   0.249276811   0.750623418
   0.249368127   0.750777087   0.249134953
   0.249136496   0.750845806   0.751413091
   0.750027890   0.248742572   0.248955351
   0.750946165   0.248648529   0.750363518
   0.751015549   0.750895322   0.249696087
   0.750825349   0.751161214   0.750491949
   0.248707907   0.000461938   0.000830306
   0.249211325   0.000161558   0.499862113
   0.248992725   0.499686241   0.000022253
   0.249161207   0.498685899   0.500047745
   0.750842439   0.000869922   0.000218331
   0.751302680   0.000506183   0.499892230
   0.751341622   0.499162049   0.000554178
   0.750838524   0.499583002   0.499289585
   0.000863504   0.249154194   0.998586909
   0.000631873   0.249222913   0.500865047
   0.001287377   0.750723189   0.999376582
   0.000344024   0.751661273   0.500510055
   0.499174651   0.248838786   0.999508051
   0.498984451   0.249104678   0.500303913
   0.499053835   0.751351471   0.999636482
   0.499972110   0.751257428   0.501044649
   0.000788675   0.999838442   0.250137887
   0.001292093   0.999538062   0.749169694
   0.000838793   0.501314101   0.249952255
   0.001007275   0.500313759   0.749977747
   0.498697320   0.999493817   0.250107770
   0.499157561   0.999130078   0.749781669
   0.499161476   0.500416998   0.250710415
   0.498658378   0.500837951   0.749445822
Mg28Ni4O32
   1.00000000
   8.477620219   0.000095543   0.000502593
   0.000095543   8.476680446  -0.000717587
   0.000502594  -0.000717588   8.475421317
  Ni  Mg  O
  4  28  32
Direct configuration=     8
   0.000316031   0.000962244   0.999215872
   0.998748378   0.250006206   0.248992715
   0.249683969   0.999037756   0.750784128
   0.251251622   0.749993794   0.501007285
   0.002376933   0.999416483   0.500150576
   0.002021834   0.500250638   0.999853162
   0.000276710   0.500289442   0.500065609
   0.499423835   0.000248858   0.000107091
   0.497957207   0.000147967   0.500403421
   0.498205336   0.500416351   0.999881943
   0.499651158   0.499762737   0.500130235
   0.001722724   0.247457211   0.749584403
   0.001712349   0.750862063   0.250488015
   0.001284076   0.751799935   0.750046167
   0.498591748   0.247873010   0.249874067
   0.498579119   0.249577297   0.749759184
   0.498751652   0.751862572   0.250109102
   0.498911938   0.750618684   0.750584066
   0.247623067   0.000583517   0.249849424
   0.249723290   0.499710558   0.249934391
   0.247978166   0.499749362   0.750146838
   0.752042793   0.999852033   0.249596579
   0.750576165   0.999751142   0.749892909
   0.750348842   0.500237263   0.249869765
   0.751794664   0.499583649   0.750118057
   0.248715924   0.248200065   0.999953833
   0.248287651   0.249137937   0.499511985
   0.248277276   0.752542789   0.000415597
   0.751088062   0.249381316   0.999415934
   0.751248348   0.248137428   0.499890898
   0.751420881   0.750422703   0.000240816
   0.751408252   0.752126990   0.500125933
   0.248998660   0.248531409   0.249428630
   0.248887085   0.248883846   0.750554863
   0.249411099   0.750840166   0.249637049
   0.249119120   0.750909415   0.751177580
   0.750265302   0.248701768   0.249096212
   0.750958978   0.248617140   0.750162695
   0.751086589   0.751153922   0.249696158
   0.751091539   0.751104917   0.750562737
   0.248519621   0.000531758   0.000686668
   0.249315978   0.999826400   0.499979520
   0.249075164   0.499617570   0.000133237
   0.249021996   0.499039850   0.500004576
   0.751105085   0.000605066   0.000099881
   0.751308854   0.000487499   0.499801525
   0.751312697   0.499330786   0.000362702
   0.751016468   0.499582952   0.499478195
   0.000880880   0.249090585   0.998822420
   0.000588901   0.249159834   0.500362951
   0.001112915   0.751116154   0.999445137
   0.001001340   0.751468591   0.500571370
   0.498908461   0.248895083   0.999437263
   0.498913411   0.248846078   0.500303842
   0.499041022   0.751382860   0.999837305
   0.499734698   0.751298232   0.500903788
   0.000684022   0.000173600   0.250020480
   0.001480379   0.999468242   0.749313332
   0.000978004   0.500960150   0.249995424
   0.000924836   0.500382430   0.749866763
   0.498691146   0.999512501   0.250198475
   0.498894915   0.999394934   0.749900119
   0.498983532   0.500417048   0.250521805
   0.498687303   0.500669214   0.749637298
Mg28Ni4O32
   1.00000000
   8.488259403   0.000127368   0.000649050
   0.000127369   8.487044763  -0.000928276
   0.000649050  -0.000928276   8.485411940
  Ni  Mg  O
  4  28  32
Direct configuration=     9
   0.000123108   0.000880167   0.999303740
   0.998840479   0.250134390   0.249049136
   0.249876892   0.999119833   0.750696260
   0.251159521   0.749865610   0.500950864
   0.002225296   0.999583304   0.499985343
   0.001350673   0.500241767   0.999985652
   0.000121763   0.500348913   0.499849349
   0.499655440   0.000152945   0.999982696
   0.498185203   0.000169921   0.500398302
   0.498615120   0.500435163   0.999882521
   0.499962727   0.499726043   0.500187316
   0.001197920   0.247721892   0.749488693
   0.001480676   0.750616374   0.250501246
   0.001004683   0.751544972   0.750023305
   0.498952063   0.248380721   0.249882747
   0.498733684   0.249819695   0.749757905
   0.498995816   0.751454489   0.250130504
   0.499274128   0.750172207   0.750772333
   0.247774704   0.000416696   0.250014657
   0.249878237   0.499651087   0.250150651
   0.248649327   0.499758233   0.750014348
   0.751814797   0.999830079   0.249601698
   0.750344560   0.999847055   0.750017304
   0.750037273   0.500273957   0.249812684
   0.751384880   0.499564837   0.750117479
   0.248995317   0.248455028   0.999976695
   0.248519324   0.249383626   0.499498754
   0.248802080   0.752278108   0.000511307
   0.750725872   0.249827793   0.999227667
   0.751004184   0.248545511   0.499869496
   0.751266316   0.750180305   0.000242095
   0.751047937   0.751619279   0.500117253
   0.248647131   0.248851869   0.249467238
   0.249098788   0.248809640   0.750334500
   0.249477262   0.750864826   0.249976814
   0.249211621   0.750670018   0.751046909
   0.750184568   0.248749455   0.249317784
   0.750911935   0.248633073   0.749862805
   0.751109212   0.751350200   0.249851538
   0.751273219   0.751014701   0.750451971
   0.248682372   0.000457904   0.000619935
   0.249537995   0.999645353   0.500011349
   0.249175012   0.499700812   0.000100300
   0.249010930   0.499300454   0.500131947
   0.751008330   0.000232879   0.999843647
   0.751176722   0.000240684   0.499867574
   0.751192862   0.499665641   0.000033805
   0.751096320   0.499767599   0.499823273
   0.000788379   0.249329982   0.998953091
   0.000522738   0.249135174   0.500023186
   0.000901212   0.751190360   0.999665500
   0.001352869   0.751148131   0.500532762
   0.498726781   0.248985299   0.999548029
   0.498890788   0.248649800   0.500148462
   0.499088065   0.751366927   0.000137195
   0.499815432   0.751250545   0.500682216
   0.000462005   0.000354647   0.249988651
   0.001317628   0.999542096   0.749380065
   0.000989070   0.500699546   0.249868053
   0.000824988   0.500299188   0.749899700
   0.498823278   0.999759316   0.250132426
   0.498991670   0.999767121   0.750156353
   0.498903680   0.500232401   0.250176727
   0.498807138   0.500334359   0.749966195
Mg28Ni4O32
   1.00000000
   8.496171120   0.000152549   0.000760021
   0.000152550   8.494746278  -0.001088341
   0.000760021  -0.001088342   8.492826537
  Ni  Mg  O
  4  28  32
Direct configuration=     10
   0.000010226   0.000898963   0.999463846
   0.998930436   0.250202605   0.249052496
   0.249989774   0.999101037   0.750536154
   0.251069564   0.749797395   0.500947504
   0.002100491   0.999736313   0.499801091
   0.000633992   0.500058510   0.000247528
   0.000078331   0.500343680   0.499507117
   0.499785121   0.000059966   0.999797678
   0.498329212   0.000015153   0.500476755
   0.499145231   0.500430855   0.999918408
   0.500130255   0.499857300   0.500202202
   0.000723863   0.247979957   0.749548241
   0.001252742   0.750434656   0.250531358
   0.000921566   0.751361459   0.749976052
   0.499355317   0.249012391   0.249913988
   0.498933357   0.249979854   0.749746160
   0.499204992   0.750914628   0.250308070
   0.499443512   0.749837948   0.750715431
   0.247899509   0.000263687   0.250198909
   0.249921669   0.499656320   0.250492883
   0.249366008   0.499941490   0.749752472
   0.751670788   0.999984847   0.249523245
   0.750214879   0.999940034   0.750202322
   0.749869745   0.500142700   0.249797798
   0.750854769   0.499569145   0.750081592
   0.249078434   0.248638541   0.000023948
   0.248747258   0.249565344   0.499468642
   0.249276137   0.752020043   0.000451759
   0.750556488   0.250162052   0.999284569
   0.750795008   0.249085372   0.499691930
   0.751066643   0.750020146   0.000253840
   0.750644683   0.750987609   0.500086012
   0.248839002   0.249159001   0.249614954
   0.249241578   0.249141893   0.750040982
   0.249545629   0.750816696   0.249961794
   0.249422264   0.750209902   0.751106030
   0.749771586   0.248920473   0.249495545
   0.750794025   0.248723643   0.749614124
   0.751049260   0.751317992   0.250107667
   0.751220238   0.750907558   0.750190407
   0.249155293   0.000252102   0.000670845
   0.249779546   0.999735316   0.499935806
   0.249254614   0.499928812   0.999923213
   0.249195724   0.499312381   0.500385785
   0.750545697   0.999959369   0.999564587
   0.750948479   0.999861852   0.500084599
   0.750997730   0.500008069   0.999737417
   0.750981473   0.500064584   0.500141005
   0.000577736   0.249790098   0.998893970
   0.000454371   0.249183304   0.500038206
   0.000758422   0.750858107   0.999959018
   0.001160998   0.750840999   0.500385046
   0.498779762   0.249092442   0.999809593
   0.498950740   0.248682008   0.499892333
   0.499205975   0.751276357   0.000385876
   0.500228414   0.751079527   0.500504455
   0.000220454   0.000264684   0.250064194
   0.000844707   0.999747898   0.749329155
   0.000804276   0.500687619   0.249614215
   0.000745386   0.500071188   0.750076787
   0.499051521   0.000138148   0.249915401
   0.499454303   0.000040631   0.750435413
   0.499018527   0.499935416   0.249858995
   0.499002270   0.499991931   0.750262583
Mg28Ni4O32
   1.00000000
   8.498961538   0.000162958   0.000802079
   0.000162959   8.497455309  -0.001149637
   0.000802078  -0.001149637   8.495423485
  Ni  Mg  O
  4  28  32
Direct configuration=     11
   0.000015070   0.000958294   0.999587868
   0.998988807   0.250187352   0.249024540
   0.249984930   0.999041706   0.750412132
   0.251011193   0.749812648   0.500975460