Mg28Ni4O32
   1.00000000
   8.440351424  -0.000004695   0.000000000
  -0.000004695   8.440351424  -0.000000000
   0.000000000  -0.000000000   8.440343505
  Ni  Mg  O
  4  28  32
Direct configuration=     1
   0.000105177   0.000105177   0.000000000
   0.999894823   0.999894823   0.500000000
   0.249963958   0.249963958   0.000000000
   0.750036042   0.750036042   0.500000000
   0.000077013   0.499913009   0.000000000
   0.999922987   0.500086991   0.500000000
   0.499913009   0.000077013   0.000000000
   0.500086991   0.999922987   0.500000000
   0.499922091   0.499922091   0.000000000
   0.500077909   0.500077909   0.500000000
   0.000098132   0.249793689   0.249896444
   0.000098132   0.249793689   0.750103556
   0.999901868   0.750206311   0.250103556
   0.999901868   0.750206311   0.749896444
   0.499903339   0.250022418   0.249942896
   0.499903339   0.250022418   0.750057104
   0.500096661   0.749977582   0.250057104
   0.500096661   0.749977582   0.749942896
   0.249793689   0.000098132   0.249896444
   0.249793689   0.000098132   0.750103556
   0.250022418   0.499903339   0.249942896
   0.250022418   0.499903339   0.750057104
   0.750206311   0.999901868   0.250103556
   0.750206311   0.999901868   0.749896444
   0.749977582   0.500096661   0.250057104
   0.749977582   0.500096661   0.749942896
   0.249876581   0.249876581   0.500000000
   0.249916150   0.750096246   0.000000000
   0.249903754   0.750083850   0.500000000
   0.750096246   0.249916150   0.000000000
   0.750083850   0.249903754   0.500000000
   0.750123419   0.750123419   0.000000000
   0.249977113   0.249977113   0.250204416
   0.249977113   0.249977113   0.749795584
   0.250007551   0.749992449   0.250000000
   0.250007551   0.749992449   0.750000000
   0.749992449   0.250007551   0.250000000
   0.749992449   0.250007551   0.750000000
   0.750022887   0.750022887   0.249795584
   0.750022887   0.750022887   0.750204416
   0.250091397   0.999831857   0.000000000
   0.250147240   0.000022288   0.500000000
   0.249937714   0.500208966   0.000000000
   0.249944825   0.499999606   0.500000000
   0.749852760   0.999977712   0.000000000
   0.749908603   0.000168143   0.500000000
   0.750055175   0.500000394   0.000000000
   0.750062286   0.499791034   0.500000000
   0.999831857   0.250091397   0.000000000
   0.000022288   0.250147240   0.500000000
   0.999977712   0.749852760   0.000000000
   0.000168143   0.749908603   0.500000000
   0.500208966   0.249937714   0.000000000
   0.499999606   0.249944825   0.500000000
   0.500000394   0.750055175   0.000000000
   0.499791034   0.750062286   0.500000000
   0.000000000   0.000000000   0.250000000
   0.000000000   0.000000000   0.750000000
   0.000000000   0.500000000   0.250000000
   0.000000000   0.500000000   0.750000000
   0.500000000   0.000000000   0.250000000
   0.500000000   0.000000000   0.750000000
   0.500000000   0.500000000   0.250000000
   0.500000000   0.500000000   0.750000000
Mg28Ni4O32
   1.00000000
   8.442216349  -0.000030868   0.000000000
  -0.000030868   8.442216349  -0.000000000
   0.000000000  -0.000000000   8.442165851
  Ni  Mg  O
  4  28  32
Direct configuration=     2
   0.000546906   0.000546906   0.000000000
   0.999453094   0.999453094   0.500000000
   0.249819914   0.249819914   0.000000000
   0.750180086   0.750180086   0.500000000
   0.000388745   0.499570599   0.000000000
   0.999611255   0.500429401   0.500000000
   0.499570599   0.000388745   0.000000000
   0.500429401   0.999611255   0.500000000
   0.499617564   0.499617564   0.000000000
   0.500382436   0.500382436   0.500000000
   0.000496838   0.248910671   0.249460281
   0.000496838   0.248910671   0.750539719
   0.999503162   0.751089329   0.250539719
   0.999503162   0.751089329   0.749460281
   0.499514054   0.250069593   0.249734799
   0.499514054   0.250069593   0.750265201
   0.500485946   0.749930407   0.250265201
   0.500485946   0.749930407   0.749734799
   0.248910671   0.000496838   0.249460281
   0.248910671   0.000496838   0.750539719
   0.250069593   0.499514054   0.249734799
   0.250069593   0.499514054   0.750265201
   0.751089329   0.999503162   0.250539719
   0.751089329   0.999503162   0.749460281
   0.749930407   0.500485946   0.250265201
   0.749930407   0.500485946   0.749734799
   0.249307648   0.249307648   0.500000000
   0.249528559   0.750519551   0.000000000
   0.249480449   0.750471441   0.500000000
   0.750519551   0.249528559   0.000000000
   0.750471441   0.249480449   0.500000000
   0.750692352   0.750692352   0.000000000
   0.249842270   0.249842270   0.251057006
   0.249842270   0.249842270   0.748942994
   0.250005464   0.749994536   0.250000000
   0.250005464   0.749994536   0.750000000
   0.749994536   0.250005464   0.250000000
   0.749994536   0.250005464   0.750000000
   0.750157730   0.750157730   0.248942994
   0.750157730   0.750157730   0.751057006
   0.250447359   0.999145455   0.000000000
   0.250733153   0.000120947   0.500000000
   0.249683235   0.501068876   0.000000000
   0.249719980   0.499994268   0.500000000
   0.749266847   0.999879053   0.000000000
   0.749552641   0.000854545   0.500000000
   0.750280020   0.500005732   0.000000000
   0.750316765   0.498931124   0.500000000
   0.999145455   0.250447359   0.000000000
   0.000120947   0.250733153   0.500000000
   0.999879053   0.749266847   0.000000000
   0.000854545   0.749552641   0.500000000
   0.501068876   0.249683235   0.000000000
   0.499994268   0.249719980   0.500000000
   0.500005732   0.750280020   0.000000000
   0.498931124   0.750316765   0.500000000
   0.000000000   0.000000000   0.250000000
   0.000000000   0.000000000   0.750000000
   0.000000000   0.500000000   0.250000000
   0.000000000   0.500000000   0.750000000
   0.500000000   0.000000000   0.250000000
   0.500000000   0.000000000   0.750000000
   0.500000000   0.500000000   0.250000000
   0.500000000   0.500000000   0.750000000
Mg28Ni4O32
   1.00000000
   8.442786451  -0.000039730   0.000000000
  -0.000039730   8.442786451  -0.000000000
   0.000000000  -0.000000000   8.442721949
  Ni  Mg  O
  4  28  32
Direct configuration=     3
   0.000587556   0.000587556   0.000000000
   0.999412444   0.999412444   0.500000000
   0.249813940   0.249813940   0.000000000
   0.750186060   0.750186060   0.500000000
   0.000405164   0.499563138   0.000000000
   0.999594836   0.500436862   0.500000000
   0.499563138   0.000405164   0.000000000
   0.500436862   0.999594836   0.500000000
   0.499611884   0.499611884   0.000000000
   0.500388116   0.500388116   0.500000000
   0.000519075   0.248819039   0.249420789
   0.000519075   0.248819039   0.750579211
   0.999480925   0.751180961   0.250579211
   0.999480925   0.751180961   0.749420789
   0.499495183   0.250031890   0.249746363
   0.499495183   0.250031890   0.750253637
   0.500504817   0.749968110   0.250253637
   0.500504817   0.749968110   0.749746363
   0.248819039   0.000519075   0.249420789
   0.248819039   0.000519075   0.750579211
   0.250031890   0.499495183   0.249746363
   0.250031890   0.499495183   0.750253637
   0.751180961   0.999480925   0.250579211
   0.751180961   0.999480925   0.749420789
   0.749968110   0.500504817   0.250253637
   0.749968110   0.500504817   0.749746363
   0.249210433   0.249210433   0.500000000
   0.249461211   0.750570989   0.000000000
   0.249429011   0.750538789   0.500000000
   0.750570989   0.249461211   0.000000000
   0.750538789   0.249429011   0.500000000
   0.750789567   0.750789567   0.000000000
   0.249794651   0.249794651   0.251124284
   0.249794651   0.249794651   0.748875716
   0.249972500   0.750027500   0.250000000
   0.249972500   0.750027500   0.750000000
   0.750027500   0.249972500   0.250000000
   0.750027500   0.249972500   0.750000000
   0.750205349   0.750205349   0.248875716
   0.750205349   0.750205349   0.751124284
   0.250451960   0.999106474   0.000000000
   0.250753979   0.000132062   0.500000000
   0.249666206   0.501127982   0.000000000
   0.249703449   0.499990890   0.500000000
   0.749246021   0.999867938   0.000000000
   0.749548040   0.000893526   0.500000000
   0.750296551   0.500009110   0.000000000
   0.750333794   0.498872018   0.500000000
   0.999106474   0.250451960   0.000000000
   0.000132062   0.250753979   0.500000000
   0.999867938   0.749246021   0.000000000
   0.000893526   0.749548040   0.500000000
   0.501127982   0.249666206   0.000000000
   0.499990890   0.249703449   0.500000000
   0.500009110   0.750296551   0.000000000
   0.498872018   0.750333794   0.500000000
   0.000000000   0.000000000   0.250000000
   0.000000000   0.000000000   0.750000000
   0.000000000   0.500000000   0.250000000
   0.000000000   0.500000000   0.750000000
   0.500000000   0.000000000   0.250000000
   0.500000000   0.000000000   0.750000000
   0.500000000   0.500000000   0.250000000
   0.500000000   0.500000000   0.750000000
Mg28Ni4O32
   1.00000000
   8.451370382  -0.000175353   0.000000000
  -0.000175353   8.451370382   0.000000000
   0.000000000   0.000000000   8.451092194
  Ni  Mg  O
  4  28  32
Direct configuration=     4
   0.000963094   0.000963094   0.000000000
   0.999036906   0.999036906   0.500000000
   0.249824116   0.249824116   0.000000000
   0.750175884   0.750175884   0.500000000
   0.000470731   0.499674134   0.000000000
   0.999529269   0.500325866   0.500000000
   0.499674134   0.000470731   0.000000000
   0.500325866   0.999529269   0.500000000
   0.499726002   0.499726002   0.000000000
   0.500273998   0.500273998   0.500000000
   0.000617789   0.247911843   0.249062695
   0.000617789   0.247911843   0.750937305
   0.999382211   0.752088157   0.250937305
   0.999382211   0.752088157   0.749062695
   0.499443716   0.249397138   0.250078747
   0.499443716   0.249397138   0.749921253
   0.500556284   0.750602862   0.249921253
   0.500556284   0.750602862   0.750078747
   0.247911843   0.000617789   0.249062695
   0.247911843   0.000617789   0.750937305
   0.249397138   0.499443716   0.250078747
   0.249397138   0.499443716   0.749921253
   0.752088157   0.999382211   0.250937305
   0.752088157   0.999382211   0.749062695
   0.750602862   0.500556284   0.249921253
   0.750602862   0.500556284   0.750078747
   0.247993954   0.247993954   0.500000000
   0.248614691   0.751117415   0.000000000
   0.248882585   0.751385309   0.500000000
   0.751117415   0.248614691   0.000000000
   0.751385309   0.248882585   0.500000000
   0.752006046   0.752006046   0.000000000
   0.249102812   0.249102812   0.251644079
   0.249102812   0.249102812   0.748355921
   0.249422287   0.750577713   0.250000000
   0.249422287   0.750577713   0.750000000
   0.750577713   0.249422287   0.250000000
   0.750577713   0.249422287   0.750000000
   0.750897188   0.750897188   0.248355921
   0.750897188   0.750897188   0.751644079
   0.250288402   0.998940898   0.000000000
   0.250689052   0.000233410   0.500000000
   0.249540464   0.501516516   0.000000000
   0.249554360   0.499941209   0.500000000
   0.749310948   0.999766590   0.000000000
   0.749711598   0.001059102   0.500000000
   0.750445640   0.500058791   0.000000000
   0.750459536   0.498483484   0.500000000
   0.998940898   0.250288402   0.000000000
   0.000233410   0.250689052   0.500000000
   0.999766590   0.749310948   0.000000000
   0.001059102   0.749711598   0.500000000
   0.501516516   0.249540464   0.000000000
   0.499941209   0.249554360   0.500000000
   0.500058791   0.750445640   0.000000000
   0.498483484   0.750459536   0.500000000
   1.000000000   0.000000000   0.250000000
   1.000000000   0.000000000   0.750000000
   0.000000000   0.500000000   0.250000000
   0.000000000   0.500000000   0.750000000
   0.500000000   0.000000000   0.250000000
   0.500000000   0.000000000   0.750000000
   0.500000000   0.500000000   0.250000000
   0.500000000   0.500000000   0.750000000
Mg28Ni4O32
   1.00000000
   8.458276759  -0.000286315   0.000000000
  -0.000286315   8.458276759   0.000000000
   0.000000000   0.000000000   8.457823298
  Ni  Mg  O
  4  28  32
Direct configuration=     5
   0.001091403   0.001091403   0.000000000
   0.998908597   0.998908597   0.500000000
   0.249909645   0.249909645   0.000000000
   0.750090355   0.750090355   0.500000000
   0.000411702   0.499898588   0.000000000
   0.999588298   0.500101412   0.500000000
   0.499898588   0.000411702   0.000000000
   0.500101412   0.999588298   0.500000000
   0.499937811   0.499937811   0.000000000
   0.500062189   0.500062189   0.500000000
   0.000541452   0.247560860   0.248948877
   0.000541452   0.247560860   0.751051123
   0.999458548   0.752439140   0.251051123
   0.999458548   0.752439140   0.748948877
   0.499549780   0.248914373   0.250421785
   0.499549780   0.248914373   0.749578215
   0.500450220   0.751085627   0.249578215
   0.500450220   0.751085627   0.750421785
   0.247560860   0.000541452   0.248948877
   0.247560860   0.000541452   0.751051123
   0.248914373   0.499549780   0.250421785
   0.248914373   0.499549780   0.749578215
   0.752439140   0.999458548   0.251051123
   0.752439140   0.999458548   0.748948877
   0.751085627   0.500450220   0.249578215
   0.751085627   0.500450220   0.750421785
   0.247266996   0.247266996   0.500000000
   0.248106752   0.751352721   0.000000000
   0.248647279   0.751893248   0.500000000
   0.751352721   0.248106752   0.000000000
   0.751893248   0.248647279   0.500000000
   0.752733004   0.752733004   0.000000000
   0.248620402   0.248620402   0.251693987
   0.248620402   0.248620402   0.748306013
   0.248979402   0.751020598   0.250000000
   0.248979402   0.751020598   0.750000000
   0.751020598   0.248979402   0.250000000
   0.751020598   0.248979402   0.750000000
   0.751379598   0.751379598   0.248306013
   0.751379598   0.751379598   0.751693987
   0.250024117   0.999104879   0.000000000
   0.250384783   0.000244164   0.500000000
   0.249512406   0.501475619   0.000000000
   0.249474603   0.499908619   0.500000000
   0.749615217   0.999755836   0.000000000
   0.749975883   0.000895121   0.500000000
   0.750525397   0.500091381   0.000000000
   0.750487594   0.498524381   0.500000000
   0.999104879   0.250024117   0.000000000
   0.000244164   0.250384783   0.500000000
   0.999755836   0.749615217   0.000000000
   0.000895121   0.749975883   0.500000000
   0.501475619   0.249512406   0.000000000
   0.499908619   0.249474603   0.500000000
   0.500091381   0.750525397   0.000000000
   0.498524381   0.750487594   0.500000000
   1.000000000   0.000000000   0.250000000
   1.000000000   0.000000000   0.750000000
   0.000000000   0.500000000   0.250000000
   0.000000000   0.500000000   0.750000000
   0.500000000   0.000000000   0.250000000
   0.500000000   0.000000000   0.750000000
   0.500000000   0.500000000   0.250000000
   0.500000000   0.500000000   0.750000000
Mg28Ni4O32
   1.00000000
   8.465884128  -0.000410540   0.000000000
  -0.000410540   8.465884128  -0.000000000
   0.000000000  -0.000000000   8.465232582
  Ni  Mg  O
  4  28  32
Direct configuration=     6
   0.001095968   0.001095968   0.000000000
   0.998904032   0.998904032   0.500000000
   0.250067062   0.250067062   0.000000000
   0.749932938   0.749932938   0.500000000
   0.000293522   0.500204106   0.000000000
   0.999706478   0.499795894   0.500000000
   0.500204106   0.000293522   0.000000000
   0.499795894   0.999706478   0.500000000
   0.500221738   0.500221738   0.000000000
   0.499778262   0.499778262   0.500000000
   0.000364629   0.247523902   0.248961319
   0.000364629   0.247523902   0.751038681
   0.999635371   0.752476098   0.251038681
   0.999635371   0.752476098   0.748961319
   0.499747176   0.248522971   0.250791682
   0.499747176   0.248522971   0.749208318
   0.500252824   0.751477029   0.249208318
   0.500252824   0.751477029   0.750791682
   0.247523902   0.000364629   0.248961319
   0.247523902   0.000364629   0.751038681
   0.248522971   0.499747176   0.250791682
   0.248522971   0.499747176   0.749208318
   0.752476098   0.999635371   0.251038681
   0.752476098   0.999635371   0.748961319
   0.751477029   0.500252824   0.249208318
   0.751477029   0.500252824   0.750791682
   0.246778770   0.246778770   0.500000000
   0.247766962   0.751399401   0.000000000
   0.248600599   0.752233038   0.500000000
   0.751399401   0.247766962   0.000000000
   0.752233038   0.248600599   0.500000000
   0.753221230   0.753221230   0.000000000
   0.248240119   0.248240119   0.251453999
   0.248240119   0.248240119   0.748546001
   0.248563132   0.751436868   0.250000000
   0.248563132   0.751436868   0.750000000
   0.751436868   0.248563132   0.250000000
   0.751436868   0.248563132   0.750000000
   0.751759881   0.751759881   0.248546001
   0.751759881   0.751759881   0.751453999
   0.249690585   0.999495624   0.000000000
   0.249896174   0.000169771   0.500000000
   0.249510835   0.501177620   0.000000000
   0.249375904   0.499887056   0.500000000
   0.750103826   0.999830229   0.000000000
   0.750309415   0.000504376   0.500000000
   0.750624096   0.500112944   0.000000000
   0.750489165   0.498822380   0.500000000
   0.999495624   0.249690585   0.000000000
   0.000169771   0.249896174   0.500000000
   0.999830229   0.750103826   0.000000000
   0.000504376   0.750309415   0.500000000
   0.501177620   0.249510835   0.000000000
   0.499887056   0.249375904   0.500000000
   0.500112944   0.750624096   0.000000000
   0.498822380   0.750489165   0.500000000
   1.000000000   0.000000000   0.250000000
   1.000000000   0.000000000   0.750000000
   1.000000000   0.500000000   0.250000000
   1.000000000   0.500000000   0.750000000
   0.500000000   0.000000000   0.250000000
   0.500000000   0.000000000   0.750000000
   0.500000000   0.500000000   0.250000000
   0.500000000   0.500000000   0.750000000
Mg28Ni4O32
   1.00000000
   8.471538348  -0.000504704   0.000000000
  -0.000504704   8.471538348  -0.000000000
   0.000000000  -0.000000000   8.470734038
  Ni  Mg  O
  4  28  32
Direct configuration=     7
   0.001035217   0.001035217   0.000000000
   0.998964783   0.998964783   0.500000000
   0.250211690   0.250211690   0.000000000
   0.749788310   0.749788310   0.500000000
   0.000227246   0.500390781   0.000000000
   0.999772754   0.499609219   0.500000000
   0.500390781   0.000227246   0.000000000
   0.499609219   0.999772754   0.500000000
   0.500395309   0.500395309   0.000000000
   0.499604691   0.499604691   0.500000000
   0.000231137   0.247735816   0.249037923
   0.000231137   0.247735816   0.750962077
   0.999768863   0.752264184   0.250962077
   0.999768863   0.752264184   0.749037923
   0.499885237   0.248456195   0.250967123
   0.499885237   0.248456195   0.749032877
   0.500114763   0.751543805   0.249032877
   0.500114763   0.751543805   0.750967123
   0.247735816   0.000231137   0.249037923
   0.247735816   0.000231137   0.750962077
   0.248456195   0.499885237   0.250967123
   0.248456195   0.499885237   0.749032877
   0.752264184   0.999768863   0.250962077
   0.752264184   0.999768863   0.749037923
   0.751543805   0.500114763   0.249032877
   0.751543805   0.500114763   0.750967123
   0.246725620   0.246725620   0.500000000
   0.247739187   0.751268247   0.000000000
   0.248731753   0.752260813   0.500000000
   0.751268247   0.247739187   0.000000000
   0.752260813   0.248731753   0.500000000
   0.753274380   0.753274380   0.000000000
   0.248162229   0.248162229   0.251132655
   0.248162229   0.248162229   0.748867345
   0.248397156   0.751602844   0.250000000
   0.248397156   0.751602844   0.750000000
   0.751602844   0.248397156   0.250000000
   0.751602844   0.248397156   0.750000000
   0.751837771   0.751837771   0.248867345
   0.751837771   0.751837771   0.751132655
   0.249508845   0.999849562   0.000000000
   0.249526525   0.000039616   0.500000000
   0.249496609   0.500872892   0.000000000
   0.249253297   0.499886789   0.500000000
   0.750473475   0.999960384   0.000000000
   0.750491155   0.000150438   0.500000000
   0.750746703   0.500113211   0.000000000
   0.750503391   0.499127108   0.500000000
   0.999849562   0.249508845   0.000000000
   0.000039616   0.249526525   0.500000000
   0.999960384   0.750473475   0.000000000
   0.000150438   0.750491155   0.500000000
   0.500872892   0.249496609   0.000000000
   0.499886789   0.249253297   0.500000000
   0.500113211   0.750746703   0.000000000
   0.499127108   0.750503391   0.500000000
   0.000000000   0.000000000   0.250000000
   1.000000000   0.000000000   0.750000000
   1.000000000   0.500000000   0.250000000
   1.000000000   0.500000000   0.750000000
   0.500000000   0.000000000   0.250000000
   0.500000000   0.000000000   0.750000000
   0.500000000   0.500000000   0.250000000
   0.500000000   0.500000000   0.750000000
Mg28Ni4O32
   1.00000000
   8.479726377  -0.000643123   0.000000000
  -0.000643123   8.479726377  -0.000000000
   0.000000000  -0.000000000   8.478694692
  Ni  Mg  O
  4  28  32
Direct configuration=     8
   0.000959083   0.000959083   0.000000000
   0.999040917   0.999040917   0.500000000
   0.250402051   0.250402051   0.000000000
   0.749597949   0.749597949   0.500000000
   0.000228801   0.500512246   0.000000000
   0.999771199   0.499487754   0.500000000
   0.500512246   0.000228801   0.000000000
   0.499487754   0.999771199   0.500000000
   0.500513549   0.500513549   0.000000000
   0.499486451   0.499486451   0.500000000
   0.000129368   0.248172507   0.249145526
   0.000129368   0.248172507   0.750854474
   0.999870632   0.751827493   0.250854474
   0.999870632   0.751827493   0.749145526
   0.499983879   0.248664718   0.251019923
   0.499983879   0.248664718   0.748980077
   0.500016121   0.751335282   0.248980077
   0.500016121   0.751335282   0.751019923
   0.248172507   0.000129368   0.249145526
   0.248172507   0.000129368   0.750854474
   0.248664718   0.499983879   0.251019923
   0.248664718   0.499983879   0.748980077
   0.751827493   0.999870632   0.250854474
   0.751827493   0.999870632   0.749145526
   0.751335282   0.500016121   0.248980077
   0.751335282   0.500016121   0.751019923
   0.246964708   0.246964708   0.500000000
   0.247938918   0.750968246   0.000000000
   0.249031754   0.752061082   0.500000000
   0.750968246   0.247938918   0.000000000
   0.752061082   0.249031754   0.500000000
   0.753035292   0.753035292   0.000000000
   0.248322564   0.248322564   0.250690146
   0.248322564   0.248322564   0.749309854
   0.248392077   0.751607923   0.250000000
   0.248392077   0.751607923   0.750000000
   0.751607923   0.248392077   0.250000000
   0.751607923   0.248392077   0.750000000
   0.751677436   0.751677436   0.249309854
   0.751677436   0.751677436   0.750690146
   0.249430426   0.000266800   0.000000000
   0.249148532   0.999799626   0.500000000
   0.249438399   0.500531204   0.000000000
   0.249010719   0.499899623   0.500000000
   0.750851468   0.000200374   0.000000000
   0.750569574   0.999733200   0.500000000
   0.750989281   0.500100377   0.000000000
   0.750561601   0.499468796   0.500000000
   0.000266800   0.249430426   0.000000000
   0.999799626   0.249148532   0.500000000
   0.000200374   0.750851468   0.000000000
   0.999733200   0.750569574   0.500000000
   0.500531204   0.249438399   0.000000000
   0.499899623   0.249010719   0.500000000
   0.500100377   0.750989281   0.000000000
   0.499468796   0.750561601   0.500000000
   0.000000000   0.000000000   0.250000000
   0.000000000   0.000000000   0.750000000
   1.000000000   0.500000000   0.250000000
   1.000000000   0.500000000   0.750000000
   0.500000000   0.000000000   0.250000000
   0.500000000   0.000000000   0.750000000
   0.500000000   0.500000000   0.250000000
   0.500000000   0.500000000   0.750000000
Mg28Ni4O32
   1.00000000
   8.489349427  -0.000808235   0.000000000
  -0.000808235   8.489349427  -0.000000000
   0.000000000  -0.000000000   8.488045084
  Ni  Mg  O
  4  28  32
Direct configuration=     9
   0.000949417   0.000949417   0.000000000
   0.999050583   0.999050583   0.500000000
   0.250553515   0.250553515   0.000000000
   0.749446485   0.749446485   0.500000000
   0.000365278   0.500442830   0.000000000
   0.999634722   0.499557170   0.500000000
   0.500442830   0.000365278   0.000000000
   0.499557170   0.999634722   0.500000000
   0.500465471   0.500465471   0.000000000
   0.499534529   0.499534529   0.500000000
   0.000158828   0.248671366   0.249206629
   0.000158828   0.248671366   0.750793371
   0.999841172   0.751328634   0.250793371
   0.999841172   0.751328634   0.749206629
   0.499943228   0.249181045   0.250840436
   0.499943228   0.249181045   0.749159564
   0.500056772   0.750818955   0.249159564
   0.500056772   0.750818955   0.750840436
   0.248671366   0.000158828   0.249206629
   0.248671366   0.000158828   0.750793371
   0.249181045   0.499943228   0.250840436
   0.249181045   0.499943228   0.749159564
   0.751328634   0.999841172   0.250793371
   0.751328634   0.999841172   0.749206629
   0.750818955   0.500056772   0.249159564
   0.750818955   0.500056772   0.750840436
   0.247475957   0.247475957   0.500000000
   0.248361496   0.750608550   0.000000000
   0.249391450   0.751638504   0.500000000
   0.750608550   0.248361496   0.000000000
   0.751638504   0.249391450   0.500000000
   0.752524043   0.752524043   0.000000000
   0.248775236   0.248775236   0.250358233
   0.248775236   0.248775236   0.749641767
   0.248655161   0.751344839   0.250000000
   0.248655161   0.751344839   0.750000000
   0.751344839   0.248655161   0.250000000
   0.751344839   0.248655161   0.750000000
   0.751224764   0.751224764   0.249641767
   0.751224764   0.751224764   0.750358233
   0.249584980   0.000529369   0.000000000
   0.248985670   0.999522866   0.500000000
   0.249350528   0.500382353   0.000000000
   0.248705122   0.499915406   0.500000000
   0.751014330   0.000477134   0.000000000
   0.750415020   0.999470631   0.500000000
   0.751294878   0.500084594   0.000000000
   0.750649472   0.499617647   0.500000000
   0.000529369   0.249584980   0.000000000
   0.999522866   0.248985670   0.500000000
   0.000477134   0.751014330   0.000000000
   0.999470631   0.750415020   0.500000000
   0.500382353   0.249350528   0.000000000
   0.499915406   0.248705122   0.500000000
   0.500084594   0.751294878   0.000000000
   0.499617647   0.750649472   0.500000000
   0.000000000   0.000000000   0.250000000
   0.000000000   0.000000000   0.750000000
   1.000000000   0.500000000   0.250000000
   1.000000000   0.500000000   0.750000000
   0.500000000   1.000000000   0.250000000
   0.500000000   1.000000000   0.750000000
   0.500000000   0.500000000   0.250000000
   0.500000000   0.500000000   0.750000000
Mg28Ni4O32
   1.00000000
   8.496856059  -0.000940539   0.000000000
  -0.000940539   8.496856059  -0.000000000
   0.000000000  -0.000000000   8.495333645
  Ni  Mg  O
  4  28  32
Direct configuration=     10
   0.001038155   0.001038155   0.000000000
   0.998961845   0.998961845   0.500000000
   0.250565654   0.250565654   0.000000000
   0.749434346   0.749434346   0.500000000
   0.000588763   0.500180571   0.000000000
   0.999411237   0.499819429   0.500000000
   0.500180571   0.000588763   0.000000000
   0.499819429   0.999411237   0.500000000
   0.500245913   0.500245913   0.000000000
   0.499754087   0.499754087   0.500000000
   0.000325640   0.248965586   0.249176655
   0.000325640   0.248965586   0.750823345
   0.999674360   0.751034414   0.250823345
   0.999674360   0.751034414   0.749176655
   0.499761626   0.249752457   0.250481808
   0.499761626   0.249752457   0.749518192
   0.500238374   0.750247543   0.249518192
   0.500238374   0.750247543   0.750481808
   0.248965586   0.000325640   0.249176655
   0.248965586   0.000325640   0.750823345
   0.249752457   0.499761626   0.250481808
   0.249752457   0.499761626   0.749518192
   0.751034414   0.999674360   0.250823345
   0.751034414   0.999674360   0.749176655
   0.750247543   0.500238374   0.249518192
   0.750247543   0.500238374   0.750481808
   0.248016042   0.248016042   0.500000000
   0.248819360   0.750405253   0.000000000
   0.249594747   0.751180640   0.500000000
   0.750405253   0.248819360   0.000000000
   0.751180640   0.249594747   0.500000000
   0.751983958   0.751983958   0.000000000
   0.249340176   0.249340176   0.250360596
   0.249340176   0.249340176   0.749639404
   0.249114926   0.750885074   0.250000000
   0.249114926   0.750885074   0.750000000
   0.750885074   0.249114926   0.250000000
   0.750885074   0.249114926   0.750000000
   0.750659824   0.750659824   0.249639404
   0.750659824   0.750659824   0.750360596
   0.249941719   0.000463542   0.000000000
   0.249174096   0.999370416   0.500000000
   0.249319287   0.500562708   0.000000000
   0.248533074   0.499913071   0.500000000
   0.750825904   0.000629584   0.000000000
   0.750058281   0.999536458   0.500000000
   0.751466926   0.500086929   0.000000000
   0.750680713   0.499437292   0.500000000
   0.000463542   0.249941719   0.000000000
   0.999370416   0.249174096   0.500000000
   0.000629584   0.750825904   0.000000000
   0.999536458   0.750058281   0.500000000
   0.500562708   0.249319287   0.000000000
   0.499913071   0.248533074   0.500000000
   0.500086929   0.751466926   0.000000000
   0.499437292   0.750680713   0.500000000
   0.000000000   0.000000000   0.250000000
   0.000000000   0.000000000   0.750000000
   1.000000000   0.500000000   0.250000000
   1.000000000   0.500000000   0.750000000
   0.500000000   1.000000000   0.250000000
   0.500000000   1.000000000   0.750000000
   0.500000000   0.500000000   0.250000000
   0.500000000   0.500000000   0.750000000
Mg28Ni4O32
   1.00000000
   8.499261316  -0.000987614   0.000000000
  -0.000987614   8.499261316  -0.000000000
   0.000000000  -0.000000000   8.497662930
  Ni  Mg  O
  4  28  32
Direct configuration=     11
   0.001129643   0.001129643   0.000000000
   0.998870357   0.998870357   0.500000000
   0.250462392   0.250462392   0.000000000
   0.749537608   0.749537608   0.500000000