H107LiMg53
   1.00000000
   13.503017124   0.000003099   0.000000000
   0.000003099   13.503017124   0.000000000
   0.000000000   0.000000000   9.029981232
  Li  Mg  H
  1  53  107
Direct configuration=     1
   0.000000189   0.000000189   0.000000000
   0.000000222   0.000000222   0.332895572
   0.000000222   0.000000222   0.667104428
   0.000000828   0.333304915   1.000000000
   0.999997432   0.333321311   0.333327881
   0.999997432   0.333321311   0.666672119
   0.999998575   0.666696967   1.000000000
   0.000002081   0.666678609   0.333325531
   0.000002081   0.666678609   0.666674469
   0.333304915   0.000000828   0.000000000
   0.333321311   0.999997432   0.333327881
   0.333321311   0.999997432   0.666672119
   0.333146744   0.333146744   1.000000000
   0.333321480   0.333321480   0.333364244
   0.333321481   0.333321480   0.666635756
   0.333314169   0.666696464   1.000000000
   0.333327274   0.666662486   0.333342634
   0.333327274   0.666662486   0.666657366
   0.666696967   0.999998575   1.000000000
   0.666678609   0.000002081   0.333325530
   0.666678609   0.000002081   0.666674469
   0.666696464   0.333314169   1.000000000
   0.666662486   0.333327274   0.333342634
   0.666662485   0.333327274   0.666657366
   0.666696465   0.666696465   1.000000000
   0.666661457   0.666661457   0.333325187
   0.666661458   0.666661457   0.666674814
   0.166534960   0.166534960   0.166470003
   0.166658062   0.166658062   0.500000000
   0.166534960   0.166534960   0.833529997
   0.166659288   0.500006184   0.166672179
   0.166668157   0.500004988   0.500000000
   0.166659288   0.500006184   0.833327821
   0.166528030   0.833471868   0.166621377
   0.166655289   0.833345052   0.500000000
   0.166528029   0.833471868   0.833378623
   0.500006184   0.166659288   0.166672179
   0.500004988   0.166668157   0.500000000
   0.500006184   0.166659288   0.833327821
   0.500159959   0.500159959   0.167091690
   0.500006959   0.500006959   0.500000000
   0.500159959   0.500159959   0.832908310
   0.499999969   0.833338398   0.166663713
   0.500000111   0.833335446   0.500000000
   0.499999969   0.833338398   0.833336287
   0.833471868   0.166528029   0.166621377
   0.833345052   0.166655289   0.500000000
   0.833471868   0.166528030   0.833378623
   0.833338398   0.499999969   0.166663713
   0.833335446   0.500000112   0.500000000
   0.833338398   0.499999969   0.833336287
   0.833466941   0.833466941   0.166478466
   0.833343442   0.833343442   0.500000000
   0.833466941   0.833466941   0.833521534
   0.101607453   0.101607453   0.000000000
   0.101465927   0.101465927   0.333405068
   0.101465927   0.101465927   0.666594932
   0.101442155   0.434774428   0.000000000
   0.101438099   0.434770714   0.333332515
   0.101438099   0.434770713   0.666667485
   0.101456482   0.768074428   1.000000000
   0.101437264   0.768084300   0.333356445
   0.101437264   0.768084300   0.666643555
   0.434774428   0.101442155   1.000000000
   0.434770713   0.101438099   0.333332515
   0.434770713   0.101438099   0.666667485
   0.434768066   0.434768066   0.333322024
   0.434768066   0.434768066   0.666677976
   0.434774921   0.768102005   0.000000000
   0.434773232   0.768107120   0.333331494
   0.434773232   0.768107120   0.666668506
   0.768074428   0.101456482   0.000000000
   0.768084300   0.101437264   0.333356445
   0.768084300   0.101437264   0.666643555
   0.768102004   0.434774921   0.000000000
   0.768107120   0.434773232   0.333331494
   0.768107120   0.434773232   0.666668506
   0.768039679   0.768039679   0.000000000
   0.768108420   0.768108420   0.333326672
   0.768108420   0.768108420   0.666673328
   0.231963361   0.231963361   0.000000000
   0.231890875   0.231890875   0.333326441
   0.231890876   0.231890876   0.666673559
   0.231921013   0.565213487   0.000000000
   0.231891243   0.565225531   0.333334926
   0.231891243   0.565225531   0.666665074
   0.231926312   0.898543887   1.000000000
   0.231916242   0.898562854   0.333356261
   0.231916242   0.898562855   0.666643739
   0.565213487   0.231921013   1.000000000
   0.565225531   0.231891243   0.333334925
   0.565225531   0.231891243   0.666665075
   0.565026340   0.565026340   0.000000000
   0.565236527   0.565236527   0.333326125
   0.565236527   0.565236527   0.666673875
   0.565226875   0.898560526   0.000000000
   0.565228196   0.898561566   0.333331747
   0.565228196   0.898561566   0.666668252
   0.898543887   0.231926312   1.000000000
   0.898562855   0.231916242   0.333356261
   0.898562855   0.231916242   0.666643739
   0.898560526   0.565226875   1.000000000
   0.898561566   0.565228197   0.333331747
   0.898561566   0.565228196   0.666668253
   0.898390792   0.898390792   1.000000000
   0.898534284   0.898534284   0.333405419
   0.898534284   0.898534284   0.666594581
   0.065214614   0.268137342   0.166694503
   0.065225875   0.268098161   0.500000000
   0.065214614   0.268137342   0.833305497
   0.065227558   0.601440156   0.166667659
   0.065228215   0.601438992   0.500000000
   0.065227558   0.601440156   0.833332341
   0.065358973   0.934641049   0.166966799
   0.065215129   0.934784945   0.500000000
   0.065358973   0.934641049   0.833033201
   0.398581032   0.268160896   0.166594769
   0.398560380   0.268103492   0.500000000
   0.398581032   0.268160896   0.833405231
   0.398573085   0.601375614   0.166588504
   0.398553537   0.601446617   0.500000000
   0.398573085   0.601375614   0.833411496
   0.398560021   0.934771331   0.166668588
   0.398560416   0.934771608   0.500000000
   0.398560021   0.934771331   0.833331412
   0.731893544   0.268105491   0.166659428
   0.731896693   0.268105122   0.500000000
   0.731893544   0.268105491   0.833340572
   0.731892028   0.601438131   0.166660242
   0.731901182   0.601440329   0.500000000
   0.731892028   0.601438131   0.833339758
   0.731863010   0.934783026   0.166691916
   0.731901194   0.934773527   0.500000000
   0.731863010   0.934783027   0.833308083
   0.268137342   0.065214614   0.166694503
   0.268098161   0.065225875   0.500000000
   0.268137342   0.065214614   0.833305497
   0.268160896   0.398581032   0.166594769
   0.268103492   0.398560381   0.500000000
   0.268160896   0.398581032   0.833405231
   0.268105491   0.731893544   0.166659428
   0.268105122   0.731896693   0.500000000
   0.268105491   0.731893544   0.833340572
   0.601440156   0.065227558   0.166667659
   0.601438992   0.065228215   0.500000000
   0.601440156   0.065227558   0.833332341
   0.601375614   0.398573085   0.166588504
   0.601446618   0.398553537   0.500000000
   0.601375614   0.398573085   0.833411496
   0.601438131   0.731892028   0.166660242
   0.601440329   0.731901182   0.500000000
   0.601438131   0.731892028   0.833339758
   0.934641049   0.065358973   0.166966798
   0.934784945   0.065215129   0.500000000
   0.934641049   0.065358973   0.833033201
   0.934771330   0.398560021   0.166668588
   0.934771608   0.398560416   0.500000000
   0.934771330   0.398560021   0.833331412
   0.934783027   0.731863009   0.166691917
   0.934773527   0.731901193   0.500000000
   0.934783026   0.731863009   0.833308083
H107LiMg53
   1.00000000
   13.503221216   0.000039210  -0.000000000
   0.000039210   13.503221217  -0.000000000
  -0.000000000  -0.000000000   9.029764539
  Li  Mg  H
  1  53  107
Direct configuration=     2
   0.000001811   0.000001808   0.999999992
   0.000002495   0.000002495   0.328310305
   0.000002496   0.000002495   0.671689691
   0.000012389   0.333014723   0.999999987
   0.999967435   0.333198910   0.333289973
   0.999967434   0.333198910   0.666710048
   0.999980515   0.667010819   0.999999990
   0.000025452   0.666801056   0.333261789
   0.000025453   0.666801056   0.666738213
   0.333014723   0.000012389   0.999999982
   0.333198911   0.999967434   0.333289973
   0.333198912   0.999967431   0.666710054
   0.331081176   0.331081176   0.000000002
   0.333185796   0.333185799   0.333682886
   0.333185795   0.333185795   0.666317147
   0.333094166   0.667029432   0.999999984
   0.333261363   0.666612657   0.333409348
   0.333261361   0.666612661   0.666590652
   0.667010818   0.999980516   0.999999991
   0.666801053   0.000025456   0.333261788
   0.666801056   0.000025453   0.666738216
   0.667029431   0.333094167   0.999999981
   0.666612657   0.333261364   0.333409348
   0.666612656   0.333261361   0.666590650
   0.666950512   0.666950516   0.999999991
   0.666628539   0.666628539   0.333236184
   0.666628539   0.666628544   0.666763835
   0.165105052   0.165105060   0.164433313
   0.166580615   0.166580616   0.499999981
   0.165105055   0.165105057   0.835566708
   0.166585821   0.500071138   0.166719665
   0.166677082   0.500059217   0.499999994
   0.166585821   0.500071141   0.833280335
   0.165085084   0.834913257   0.166174293
   0.166510655   0.833493401   0.499999987
   0.165085080   0.834913261   0.833825706
   0.500071140   0.166585817   0.166719665
   0.500059218   0.166677079   0.499999996
   0.500071141   0.166585819   0.833280340
   0.501953989   0.501953992   0.171739738
   0.500066753   0.500066752   0.499999984
   0.501953996   0.501953997   0.828260262
   0.499997345   0.833400121   0.166627974
   0.500001757   0.833367543   0.499999991
   0.499997351   0.833400122   0.833372053
   0.834913256   0.165085087   0.166174299
   0.833493403   0.166510654   0.499999989
   0.834913259   0.165085086   0.833825708
   0.833400125   0.499997348   0.166627972
   0.833367542   0.500001758   0.499999992
   0.833400124   0.499997349   0.833372050
   0.834911773   0.834911776   0.164522059
   0.833434837   0.833434835   0.499999989
   0.834911770   0.834911770   0.835477963
   0.103451838   0.103451837   0.999999985
   0.101812692   0.101812692   0.334167971
   0.101812689   0.101812691   0.665832045
   0.101539194   0.434849829   0.999999996
   0.101495249   0.434809509   0.333326611
   0.101495247   0.434809509   0.666673408
   0.101716410   0.767800370   0.999999995
   0.101494392   0.767905018   0.333620584
   0.101494394   0.767905016   0.666379435
   0.434849826   0.101539192   0.999999996
   0.434809508   0.101495247   0.333326611
   0.434809508   0.101495247   0.666673407
   0.434781537   0.434781537   0.333244112
   0.434781538   0.434781537   0.666755901
   0.434867471   0.768125142   0.999999987
   0.434840452   0.768179502   0.333312283
   0.434840450   0.768179501   0.666687720
   0.767800369   0.101716411   0.999999994
   0.767905019   0.101494394   0.333620577
   0.767905018   0.101494395   0.666379439
   0.768125140   0.434867473   0.999999989
   0.768179501   0.434840451   0.333312285
   0.768179501   0.434840450   0.666687719
   0.767385540   0.767385540   0.999999986
   0.768218850   0.768218850   0.333200103
   0.768218848   0.768218848   0.666799902
   0.232592064   0.232592064   0.999999988
   0.231771544   0.231771545   0.333193012
   0.231771544   0.231771544   0.666807007
   0.232156413   0.564990831   0.999999987
   0.231795779   0.565142096   0.333356846
   0.231795781   0.565142096   0.666643154
   0.232209161   0.898288047   0.999999998
   0.232101411   0.898506648   0.333618563
   0.232101411   0.898506649   0.666381444
   0.564990833   0.232156414   0.999999990
   0.565142097   0.231795780   0.333356846
   0.565142095   0.231795782   0.666643153
   0.562756283   0.562756284   0.999999984
   0.565315944   0.565315945   0.333358495
   0.565315946   0.565315946   0.666641521
   0.565166113   0.898494584   0.999999985
   0.565177561   0.898504358   0.333317578
   0.565177563   0.898504358   0.666682424
   0.898288048   0.232209162   0.999999992
   0.898506646   0.232101409   0.333618561
   0.898506647   0.232101410   0.666381447
   0.898494584   0.565166112   0.999999986
   0.898504360   0.565177562   0.333317581
   0.898504360   0.565177564   0.666682422
   0.896533731   0.896533729   0.999999990
   0.898191298   0.898191296   0.334173827
   0.898191299   0.898191298   0.665826171
   0.065020399   0.268539962   0.166991235
   0.065145744   0.268079525   0.499999987
   0.065020400   0.268539962   0.833008773
   0.065168310   0.601517696   0.166671553
   0.065173734   0.601504466   0.499999995
   0.065168312   0.601517695   0.833328465
   0.066666698   0.933332950   0.170234813
   0.064988060   0.935012559   0.499999991
   0.066666700   0.933332948   0.829765203
   0.398759618   0.268840781   0.165793818
   0.398492169   0.268138966   0.499999987
   0.398759617   0.268840781   0.834206176
   0.398627363   0.600734498   0.165727862
   0.398410649   0.601594444   0.499999992
   0.398627363   0.600734499   0.834272154
   0.398485308   0.934817572   0.166683313
   0.398488628   0.934823454   0.499999986
   0.398485306   0.934817576   0.833316691
   0.731860557   0.268127308   0.166580907
   0.731863540   0.268158169   0.499999998
   0.731860556   0.268127310   0.833419110
   0.731791811   0.601482054   0.166576615
   0.731908967   0.601517603   0.499999990
   0.731791811   0.601482054   0.833423391
   0.731463416   0.934953290   0.166961651
   0.731912431   0.934848004   0.499999994
   0.731463415   0.934953288   0.833038358
   0.268539967   0.065020395   0.166991233
   0.268079526   0.065145747   0.499999986
   0.268539963   0.065020401   0.833008779
   0.268840780   0.398759618   0.165793816
   0.268138966   0.398492169   0.499999986
   0.268840778   0.398759620   0.834206176
   0.268127310   0.731860556   0.166580906
   0.268158171   0.731863538   0.499999994
   0.268127312   0.731860554   0.833419109
   0.601517694   0.065168312   0.166671549
   0.601504467   0.065173732   0.499999989
   0.601517693   0.065168311   0.833328464
   0.600734498   0.398627362   0.165727862
   0.601594444   0.398410648   0.499999993
   0.600734500   0.398627362   0.834272155
   0.601482053   0.731791811   0.166576615
   0.601517605   0.731908964   0.499999994
   0.601482055   0.731791811   0.833423389
   0.933332949   0.066666699   0.170234812
   0.935012561   0.064988060   0.499999990
   0.933332950   0.066666698   0.829765205
   0.934817572   0.398485309   0.166683314
   0.934823454   0.398488631   0.499999987
   0.934817575   0.398485307   0.833316691
   0.934953291   0.731463415   0.166961652
   0.934848007   0.731912431   0.499999994
   0.934953289   0.731463415   0.833038358
H107LiMg53
   1.00000000
   13.503242225   0.000041885  -0.000000000
   0.000041885   13.503242227  -0.000000000
  -0.000000000  -0.000000000   9.029751702
  Li  Mg  H
  1  53  107
Direct configuration=     3
   0.000001668   0.000001665   0.999999993
   0.000002329   0.000002329   0.328422930
   0.000002330   0.000002329   0.671577064
   0.000014628   0.333025734   0.999999988
   0.999965218   0.333202392   0.333305673
   0.999965216   0.333202392   0.666694345
   0.999978185   0.667003009   0.999999992
   0.000026559   0.666798487   0.333276945
   0.000026560   0.666798486   0.666723055
   0.333025733   0.000014628   0.999999984
   0.333202394   0.999965216   0.333305672
   0.333202394   0.999965213   0.666694351
   0.331044184   0.331044184   0.000000003
   0.333175439   0.333175441   0.333665592
   0.333175438   0.333175437   0.666334434
   0.333078064   0.667043744   0.999999987
   0.333256817   0.666611568   0.333374992
   0.333256816   0.666611571   0.666625010
   0.667003009   0.999978187   0.999999992
   0.666798484   0.000026563   0.333276944
   0.666798486   0.000026561   0.666723058
   0.667043744   0.333078064   0.999999984
   0.666611567   0.333256818   0.333374992
   0.666611568   0.333256817   0.666625008
   0.666899595   0.666899598   0.999999993
   0.666655316   0.666655317   0.333232243
   0.666655316   0.666655321   0.666767774
   0.165101111   0.165101117   0.164530463
   0.166598335   0.166598335   0.499999983
   0.165101113   0.165101115   0.835469556
   0.166595000   0.500070014   0.166711823
   0.166673644   0.500059585   0.499999996
   0.166595000   0.500070017   0.833288174
   0.165142809   0.834855056   0.166211591
   0.166493022   0.833511042   0.499999989
   0.165142806   0.834855059   0.833788410
   0.500070016   0.166594996   0.166711823
   0.500059585   0.166673641   0.499999997
   0.500070018   0.166594998   0.833288179
   0.502010912   0.502010914   0.171792980
   0.500051347   0.500051346   0.499999987
   0.502010920   0.502010918   0.828207019
   0.499995459   0.833403526   0.166627456
   0.500002248   0.833372846   0.499999994
   0.499995464   0.833403525   0.833372566
   0.834855054   0.165142812   0.166211595
   0.833511044   0.166493021   0.499999992
   0.834855058   0.165142811   0.833788412
   0.833403529   0.499995461   0.166627454
   0.833372844   0.500002249   0.499999994
   0.833403528   0.499995462   0.833372566
   0.834909282   0.834909284   0.164607190
   0.833415068   0.833415065   0.499999990
   0.834909279   0.834909279   0.835392828
   0.103421200   0.103421200   0.999999987
   0.101805363   0.101805364   0.334157660
   0.101805361   0.101805363   0.665842355
   0.101538086   0.434845759   0.999999997
   0.101497422   0.434808422   0.333325973
   0.101497421   0.434808423   0.666674045
   0.101723068   0.767801169   0.999999996
   0.101505015   0.767894002   0.333633328
   0.101505017   0.767894000   0.666366687
   0.434845757   0.101538084   0.999999997
   0.434808421   0.101497420   0.333325974
   0.434808422   0.101497420   0.666674045
   0.434784210   0.434784210   0.333281045
   0.434784212   0.434784210   0.666718967
   0.434873920   0.768126449   0.999999990
   0.434840549   0.768175516   0.333309341
   0.434840549   0.768175518   0.666690660
   0.767801168   0.101723069   0.999999995
   0.767894002   0.101505018   0.333633321
   0.767894001   0.101505018   0.666366691
   0.768126448   0.434873921   0.999999991
   0.768175518   0.434840551   0.333309343
   0.768175518   0.434840549   0.666690659
   0.767382255   0.767382255   0.999999988
   0.768235393   0.768235393   0.333149238
   0.768235391   0.768235391   0.666850766
   0.232518455   0.232518455   0.999999989
   0.231754267   0.231754268   0.333137726
   0.231754266   0.231754267   0.666862292
   0.232165001   0.564979446   0.999999988
   0.231794707   0.565139455   0.333357774
   0.231794708   0.565139455   0.666642225
   0.232209208   0.898281505   0.999999998
   0.232112491   0.898495701   0.333631443
   0.232112492   0.898495702   0.666368562
   0.564979447   0.232165001   0.999999991
   0.565139457   0.231794708   0.333357774
   0.565139454   0.231794709   0.666642224
   0.562702328   0.562702329   0.999999986
   0.565366774   0.565366775   0.333489344
   0.565366776   0.565366776   0.666510669
   0.565170573   0.898497939   0.999999987
   0.565178465   0.898505416   0.333317000
   0.565178466   0.898505416   0.666683002
   0.898281506   0.232209209   0.999999993
   0.898495699   0.232112489   0.333631442
   0.898495700   0.232112491   0.666368565
   0.898497938   0.565170572   0.999999987
   0.898505418   0.565178465   0.333317003
   0.898505418   0.565178467   0.666682999
   0.896569492   0.896569489   0.999999993
   0.898199965   0.898199963   0.334165076
   0.898199966   0.898199965   0.665834921
   0.065023827   0.268540575   0.166992198
   0.065142862   0.268080709   0.499999988
   0.065023828   0.268540575   0.833007809
   0.065168023   0.601517736   0.166668682
   0.065171065   0.601504905   0.499999996
   0.065168024   0.601517736   0.833331334
   0.066620206   0.933378851   0.170289137
   0.064960284   0.935040153   0.499999992
   0.066620208   0.933378850   0.829710879
   0.398785810   0.268864386   0.165772129
   0.398494335   0.268136635   0.499999988
   0.398785810   0.268864386   0.834227866
   0.398615605   0.600712751   0.165713950
   0.398412080   0.601596133   0.499999993
   0.398615604   0.600712752   0.834286064
   0.398485932   0.934817104   0.166681300
   0.398488282   0.934825372   0.499999988
   0.398485930   0.934817107   0.833318703
   0.731889034   0.268098055   0.166583704
   0.731865851   0.268156154   0.499999999
   0.731889033   0.268098055   0.833416310
   0.731778786   0.601470562   0.166567956
   0.731905288   0.601516513   0.499999992
   0.731778786   0.601470563   0.833432049
   0.731462223   0.934951148   0.166963186
   0.731910852   0.934851613   0.499999995
   0.731462222   0.934951146   0.833036823
   0.268540579   0.065023823   0.166992197
   0.268080709   0.065142865   0.499999988
   0.268540576   0.065023829   0.833007815
   0.268864385   0.398785811   0.165772127
   0.268136635   0.398494336   0.499999988
   0.268864383   0.398785812   0.834227865
   0.268098056   0.731889033   0.166583703
   0.268156156   0.731865848   0.499999994
   0.268098057   0.731889032   0.833416309
   0.601517735   0.065168025   0.166668679
   0.601504906   0.065171063   0.499999991
   0.601517734   0.065168024   0.833331332
   0.600712751   0.398615604   0.165713949
   0.601596133   0.398412079   0.499999994
   0.600712750   0.398615606   0.834286065
   0.601470562   0.731778786   0.166567956
   0.601516514   0.731905285   0.499999996
   0.601470563   0.731778786   0.833432047
   0.933378850   0.066620207   0.170289135
   0.935040155   0.064960284   0.499999991
   0.933378851   0.066620207   0.829710882
   0.934817103   0.398485933   0.166681300
   0.934825372   0.398488284   0.499999988
   0.934817107   0.398485931   0.833318703
   0.934951149   0.731462223   0.166963188
   0.934851616   0.731910851   0.499999995
   0.934951146   0.731462222   0.833036822
H107LiMg53
   1.00000000
   13.503688470   0.000101979   0.000000000
   0.000101979   13.503688467  -0.000000000
   0.000000000  -0.000000000   9.029457213
  Li  Mg  H
  1  53  107
Direct configuration=     4
   0.000000723   0.000000722   0.999999997
   0.999999407   0.999999399   0.329409037
   0.999999398   0.999999400   0.670590946
   0.000056660   0.333152648   0.999999985
   0.999918759   0.333239998   0.333573325
   0.999918745   0.333239991   0.666426685
   0.999933536   0.666940171   0.000000010
   0.000053115   0.666778189   0.333529100
   0.000053118   0.666778184   0.666470899
   0.333152647   0.000056662   0.999999997
   0.333239993   0.999918753   0.333573312
   0.333239969   0.999918744   0.666426690
   0.329850128   0.329850124   0.999999986
   0.332956401   0.332956382   0.333418417
   0.332956403   0.332956401   0.666581568
   0.332724679   0.667389275   0.000000010
   0.333156252   0.666578967   0.332775308
   0.333156265   0.666578973   0.667224691
   0.666940176   0.999933534   0.999999993
   0.666778185   0.000053115   0.333529084
   0.666778186   0.000053116   0.666470914
   0.667389276   0.332724676   0.000000007
   0.666578957   0.333156248   0.332775306
   0.666578963   0.333156259   0.667224706
   0.666019711   0.666019709   0.000000009
   0.667156654   0.667156658   0.333140260
   0.667156652   0.667156662   0.666859726
   0.164667220   0.164667218   0.165779287
   0.166901976   0.166901967   0.499999989
   0.164667217   0.164667217   0.834220704
   0.166745650   0.500066067   0.166580715
   0.166611854   0.500078189   0.500000008
   0.166745653   0.500066074   0.833419273
   0.165811664   0.834176895   0.166784212
   0.166133717   0.833871030   0.500000007
   0.165811668   0.834176896   0.833215794
   0.500066068   0.166745645   0.166580716
   0.500078187   0.166611854   0.500000011
   0.500066074   0.166745649   0.833419273
   0.503486327   0.503486332   0.173906440
   0.499780228   0.499780223   0.500000011
   0.503486334   0.503486324   0.826093570
   0.499963024   0.833481011   0.166610858
   0.500012865   0.833474581   0.500000010
   0.499963027   0.833481011   0.833389083
   0.834176891   0.165811663   0.166784177
   0.833871032   0.166133717   0.500000005
   0.834176900   0.165811664   0.833215802
   0.833481009   0.499963031   0.166610871
   0.833474635   0.500012849   0.500000005
   0.833481012   0.499963025   0.833389095
   0.835214910   0.835214914   0.165634735
   0.833078810   0.833078806   0.499999992
   0.835214908   0.835214915   0.834365243
   0.103289490   0.103289492   0.000000001
   0.101754053   0.101754055   0.334183335
   0.101754055   0.101754057   0.665816680
   0.101544758   0.434790248   0.000000002
   0.101552560   0.434796777   0.333309894
   0.101552560   0.434796781   0.666690103
   0.101907630   0.767753368   0.000000001
   0.101716030   0.767646303   0.333938200
   0.101716031   0.767646298   0.666061795
   0.434790252   0.101544766   0.000000001
   0.434796780   0.101552560   0.333309899
   0.434796789   0.101552565   0.666690106
   0.434847029   0.434847031   0.333935474
   0.434847028   0.434847024   0.666064521
   0.435009755   0.768151554   0.000000009
   0.434856559   0.768117508   0.333245155
   0.434856572   0.768117527   0.666754854
   0.767753369   0.101907630   0.000000003
   0.767646302   0.101716032   0.333938209
   0.767646300   0.101716035   0.666061801
   0.768151556   0.435009755   0.000000006
   0.768117520   0.434856566   0.333245148
   0.768117517   0.434856564   0.666754859
   0.767164772   0.767164771   0.000000005
   0.768564764   0.768564764   0.332188473
   0.768564759   0.768564759   0.667811533
   0.231320860   0.231320857   0.000000001
   0.231416901   0.231416903   0.332090634
   0.231416889   0.231416889   0.667909379
   0.232380936   0.564721323   0.999999997
   0.231753155   0.565072948   0.333376124
   0.231753150   0.565072942   0.666623871
   0.232275576   0.898099934   0.000000001
   0.232362875   0.898278759   0.333938343
   0.232362885   0.898278768   0.666061650
   0.564721322   0.232380934   0.999999995
   0.565072949   0.231753155   0.333376125
   0.565072940   0.231753151   0.666623869
   0.561190407   0.561190410   0.999999998
   0.566318002   0.566318004   0.335931558
   0.566318008   0.566318007   0.664068420
   0.565235836   0.898542335   0.000000001
   0.565183237   0.898510981   0.333302981
   0.565183235   0.898510973   0.666697048
   0.898099932   0.232275575   0.000000006
   0.898278760   0.232362874   0.333938353
   0.898278759   0.232362877   0.666061652
   0.898542336   0.565235834   0.000000001
   0.898510977   0.565183234   0.333302988
   0.898510974   0.565183234   0.666697033
   0.896776650   0.896776650   0.000000013
   0.898273612   0.898273610   0.334216996
   0.898273612   0.898273609   0.665783004
   0.065038045   0.268649253   0.167087543
   0.065075314   0.268094540   0.499999996
   0.065038047   0.268649251   0.832912474
   0.065152075   0.601534325   0.166618328
   0.065110250   0.601523847   0.500000003
   0.065152076   0.601534322   0.833381669
   0.066131629   0.933856169   0.172069018
   0.064412601   0.935585427   0.499999996
   0.066131625   0.933856171   0.827930998
   0.399310857   0.269466561   0.165180751
   0.398509161   0.268100380   0.499999991
   0.399310863   0.269466558   0.834819276
   0.398399047   0.600167975   0.165259215
   0.398398578   0.601667124   0.499999997
   0.398399048   0.600167973   0.834740799
   0.398479374   0.934819453   0.166650471
   0.398469543   0.934871203   0.499999988
   0.398479378   0.934819452   0.833349528
   0.732383177   0.267586240   0.166614859
   0.731902525   0.268128951   0.499999998
   0.732383182   0.267586238   0.833385136
   0.731507017   0.601259095   0.166384951
   0.731853748   0.601521688   0.500000006
   0.731507022   0.601259092   0.833615054
   0.731345946   0.934952778   0.167060382
   0.731888445   0.934930334   0.499999998
   0.731345942   0.934952776   0.832939625
   0.268649253   0.065038046   0.167087542
   0.268094544   0.065075319   0.500000003
   0.268649254   0.065038047   0.832912450
   0.269466556   0.399310864   0.165180742
   0.268100376   0.398509168   0.500000002
   0.269466558   0.399310865   0.834819272
   0.267586232   0.732383178   0.166614854
   0.268128955   0.731902520   0.499999993
   0.267586227   0.732383183   0.833385143
   0.601534320   0.065152077   0.166618335
   0.601523848   0.065110252   0.499999996
   0.601534318   0.065152079   0.833381665
   0.600167976   0.398399043   0.165259216
   0.601667122   0.398398574   0.499999999
   0.600167962   0.398399052   0.834740766
   0.601259096   0.731507014   0.166384953
   0.601521677   0.731853758   0.500000006
   0.601259092   0.731507020   0.833615046
   0.933856169   0.066131627   0.172069016
   0.935585428   0.064412603   0.499999996
   0.933856169   0.066131627   0.827931002
   0.934819451   0.398479374   0.166650475
   0.934871189   0.398469550   0.499999990
   0.934819454   0.398479374   0.833349523
   0.934952778   0.731345945   0.167060377
   0.934930337   0.731888444   0.499999998
   0.934952773   0.731345944   0.832939622
H107LiMg53
   1.00000000
   13.503793959   0.000117325   0.000000000
   0.000117325   13.503793955  -0.000000000
   0.000000000  -0.000000000   9.029385984
  Li  Mg  H
  1  53  107
Direct configuration=     5
   0.000002480   0.000002479   0.999999998
   0.999998264   0.999998259   0.329393352
   0.999998258   0.999998260   0.670606627
   0.000062058   0.333154037   0.999999988
   0.999910936   0.333245017   0.333604096
   0.999910920   0.333245010   0.666395910
   0.999928259   0.666950716   0.000000012
   0.000059825   0.666776861   0.333556771
   0.000059830   0.666776860   0.666443226
   0.333154035   0.000062061   1.000000000
   0.333245011   0.999910930   0.333604080
   0.333244990   0.999910921   0.666395916
   0.329520394   0.329520391   0.999999989
   0.332916736   0.332916718   0.333381094
   0.332916739   0.332916737   0.666618880
   0.332645640   0.667469211   0.000000015
   0.333133413   0.666570031   0.332691635
   0.333133427   0.666570036   0.667308369
   0.666950720   0.999928257   0.999999995
   0.666776861   0.000059826   0.333556753
   0.666776858   0.000059827   0.666443242
   0.667469212   0.332645636   0.000000013
   0.666570019   0.333133408   0.332691632
   0.666570027   0.333133422   0.667308384
   0.665868614   0.665868611   0.000000014
   0.667268100   0.667268103   0.333121824
   0.667268097   0.667268108   0.666878161
   0.164500324   0.164500319   0.165850674
   0.166948915   0.166948902   0.499999992