Mg28Ni4O32
   1.00000000
   8.440342716   0.000003802  -0.000003802
   0.000003802   8.440341789   0.000000497
  -0.000003802   0.000000497   8.440341789
  Ni  Mg  O
  4  28  32
Direct configuration=     1
   0.000000000   0.000095047   0.000095047
   0.000000000   0.500057186   0.500057186
   0.249975069   0.999950774   0.249955317
   0.750024931   0.249955317   0.999950774
   0.000097323   0.000003065   0.499893529
   0.999902677   0.499893529   0.000003065
   0.500000000   0.000066990   0.000066990
   0.499903180   0.999990180   0.499914455
   0.500096820   0.499914455   0.999990180
   0.500000000   0.500003852   0.500003852
   0.000000000   0.249941874   0.249941874
   0.999922735   0.250046832   0.750048065
   0.000077265   0.750048065   0.250046832
   0.000000000   0.749927703   0.749927703
   0.500000000   0.249943460   0.249943460
   0.500093389   0.250000162   0.750069562
   0.499906611   0.750069562   0.250000162
   0.500000000   0.750000807   0.750000807
   0.249950534   0.999989142   0.750051106
   0.249890940   0.500003323   0.250113333
   0.249917120   0.500006113   0.749887798
   0.750056205   0.000107750   0.249833933
   0.750058817   0.000080780   0.750161934
   0.750059254   0.499926010   0.250040534
   0.750071557   0.499934309   0.749959778
   0.249943795   0.249833933   0.000107750
   0.249940746   0.250040534   0.499926010
   0.249941183   0.750161934   0.000080780
   0.249928443   0.749959778   0.499934309
   0.750109060   0.250113333   0.500003323
   0.750049466   0.750051106   0.999989142
   0.750082880   0.749887798   0.500006113
   0.249974211   0.250187050   0.249880012
   0.249986328   0.249934939   0.750061726
   0.249964198   0.749836868   0.249925289
   0.249974518   0.750064133   0.750022495
   0.750025789   0.249880012   0.250187050
   0.750035802   0.249925289   0.749836868
   0.750013672   0.750061726   0.249934939
   0.750025482   0.750022495   0.750064133
   0.250029491   0.000054192   0.999856607
   0.249882964   0.000011380   0.500185625
   0.249884485   0.499955324   0.000069339
   0.250186227   0.499993999   0.499935300
   0.749970509   0.999856607   0.000054192
   0.750115515   0.000069339   0.499955324
   0.750117036   0.500185625   0.000011380
   0.749813773   0.499935300   0.499993999
   0.000180388   0.250121319   0.000015948
   0.999909572   0.249653732   0.500019471
   0.999987971   0.749841516   0.000039608
   0.999981863   0.750314705   0.500011492
   0.499819140   0.249949413   0.999990033
   0.500053926   0.250022803   0.499995817
   0.500048024   0.750069653   0.000017207
   0.499998766   0.749972375   0.499985927
   0.999819612   0.000015948   0.250121319
   0.000012029   0.000039608   0.749841516
   0.000090428   0.500019471   0.249653732
   0.000018137   0.500011492   0.750314705
   0.500180860   0.999990033   0.249949413
   0.499951976   0.000017207   0.750069653
   0.499946074   0.499995817   0.250022803
   0.500001234   0.499985927   0.749972375
Mg28Ni4O32
   1.00000000
   8.442148537   0.000024370  -0.000024370
   0.000024370   8.442142794   0.000003068
  -0.000024370   0.000003068   8.442142794
  Ni  Mg  O
  4  28  32
Direct configuration=     2
   0.000000000   0.000499871   0.000499871
   0.000000000   0.500293630   0.500293630
   0.249847145   0.999740357   0.249765281
   0.750152855   0.249765281   0.999740357
   0.000483742   0.000050010   0.499435817
   0.999516258   0.499435817   0.000050010
   0.500000000   0.000349501   0.000349501
   0.499525890   0.999969197   0.499550389
   0.500474110   0.499550389   0.999969197
   0.500000000   0.499998539   0.499998539
   0.000000000   0.249684243   0.249684243
   0.999625019   0.250208549   0.750256508
   0.000374981   0.750256508   0.250208549
   0.000000000   0.749644151   0.749644151
   0.500000000   0.249715628   0.249715628
   0.500470121   0.249976209   0.750356452
   0.499529879   0.750356452   0.249976209
   0.500000000   0.750027908   0.750027908
   0.249695185   0.999968301   0.750264574
   0.249384455   0.499999895   0.250534652
   0.249548437   0.500004688   0.749475794
   0.750325492   0.000578459   0.249141688
   0.750358071   0.000426165   0.750827247
   0.750332913   0.499615149   0.250198288
   0.750389243   0.499659809   0.749804117
   0.249674508   0.249141688   0.000578459
   0.249667087   0.250198288   0.499615149
   0.249641929   0.750827247   0.000426165
   0.249610757   0.749804117   0.499659809
   0.750615545   0.250534652   0.499999895
   0.750304815   0.750264574   0.999968301
   0.750451563   0.749475794   0.500004688
   0.249838759   0.250958108   0.249372764
   0.249906695   0.249672920   0.750309458
   0.249783395   0.749168750   0.249615348
   0.249842644   0.750326199   0.750102123
   0.750161241   0.249372764   0.250958108
   0.750216605   0.249615348   0.749168750
   0.750093305   0.750309458   0.249672920
   0.750157356   0.750102123   0.750326199
   0.250114985   0.000283455   0.999282609
   0.249399832   0.000053157   0.500933886
   0.249413995   0.499770077   0.000353130
   0.250936812   0.499976393   0.499662578
   0.749885015   0.999282609   0.000283455
   0.750586005   0.000353130   0.499770077
   0.750600168   0.500933886   0.000053157
   0.749063188   0.499662578   0.499976393
   0.000929501   0.250587957   0.000099338
   0.999541996   0.248186086   0.500089714
   0.999958397   0.749229931   0.000223789
   0.999923390   0.751660440   0.500048456
   0.499071042   0.249707814   0.999958207
   0.500260110   0.250100667   0.499960667
   0.500236023   0.750399678   0.000102039
   0.499966321   0.749872067   0.499911130
   0.999070499   0.000099338   0.250587957
   0.000041603   0.000223789   0.749229931
   0.000458004   0.500089714   0.248186086
   0.000076610   0.500048456   0.751660440
   0.500928958   0.999958207   0.249707814
   0.499763977   0.000102039   0.750399678
   0.499739890   0.499960667   0.250100667
   0.500033679   0.499911130   0.749872067
Mg28Ni4O32
   1.00000000
   8.442672678   0.000030699  -0.000030699
   0.000030699   8.442665896   0.000003776
  -0.000030699   0.000003776   8.442665896
  Ni  Mg  O
  4  28  32
Direct configuration=     3
   0.000000000   0.000539658   0.000539658
   0.000000000   0.500312761   0.500312761
   0.249815369   0.999718353   0.249746522
   0.750184631   0.249746522   0.999718353
   0.000495442   0.000083040   0.499390186
   0.999504558   0.499390186   0.000083040
   0.500000000   0.000372715   0.000372715
   0.499519898   0.999985230   0.499516824
   0.500480102   0.499516824   0.999985230
   0.500000000   0.499979352   0.499979352
   0.000000000   0.249651230   0.249651230
   0.999625669   0.250190645   0.750280170
   0.000374331   0.750280170   0.250190645
   0.000000000   0.749639872   0.749639872
   0.500000000   0.249705679   0.249705679
   0.500486927   0.249951728   0.750374430
   0.499513073   0.750374430   0.249951728
   0.500000000   0.750051714   0.750051714
   0.249631949   0.999988211   0.750279973
   0.249301149   0.499984627   0.250519329
   0.249501869   0.499980568   0.749495339
   0.750374491   0.000631508   0.249089559
   0.750429177   0.000457549   0.750869880
   0.750377601   0.499588456   0.250199610
   0.750429542   0.499638872   0.749803893
   0.249625509   0.249089559   0.000631508
   0.249622399   0.250199610   0.499588456
   0.249570823   0.750869880   0.000457549
   0.249570458   0.749803893   0.499638872
   0.750698851   0.250519329   0.499984627
   0.750368051   0.750279973   0.999988211
   0.750498131   0.749495339   0.499980568
   0.249801865   0.251005445   0.249332016
   0.249878444   0.249662285   0.750319264
   0.249740231   0.749131856   0.249593612
   0.249807962   0.750340377   0.750097405
   0.750198135   0.249332016   0.251005445
   0.750259769   0.249593612   0.749131856
   0.750121556   0.750319264   0.249662285
   0.750192038   0.750097405   0.750340377
   0.250084212   0.000302162   0.999264444
   0.249370659   0.000053171   0.500964653
   0.249389817   0.499756766   0.000368943
   0.250963302   0.499980131   0.499640671
   0.749915788   0.999264444   0.000302162
   0.750610183   0.000368943   0.499756766
   0.750629341   0.500964653   0.000053171
   0.749036698   0.499640671   0.499980131
   0.000979654   0.250583973   0.000120799
   0.999527002   0.248059208   0.500084110
   0.999974816   0.749229939   0.000254980
   0.999933670   0.751787343   0.500040045
   0.499021709   0.249663192   0.999965554
   0.500258251   0.250088947   0.499941394
   0.500238279   0.750459106   0.000120705
   0.499940602   0.749879733   0.499890284
   0.999020346   0.000120799   0.250583973
   0.000025184   0.000254980   0.749229939
   0.000472998   0.500084110   0.248059208
   0.000066330   0.500040045   0.751787343
   0.500978291   0.999965554   0.249663192
   0.499761721   0.000120705   0.750459106
   0.499741749   0.499941394   0.250088947
   0.500059398   0.499890284   0.749879733
Mg28Ni4O32
   1.00000000
   8.450881257   0.000130764  -0.000130764
   0.000130764   8.450859862   0.000014706
  -0.000130764   0.000014706   8.450859862
  Ni  Mg  O
  4  28  32
Direct configuration=     4
   1.000000000   0.000966604   0.000966604
   1.000000000   0.500500005   0.500500005
   0.249361557   0.999470641   0.249544573
   0.750638443   0.249544573   0.999470641
   0.000470140   0.000596131   0.498898918
   0.999529860   0.498898918   0.000596131
   0.500000000   0.000589499   0.000589499
   0.499640922   0.000260062   0.499177053
   0.500359078   0.499177053   0.000260062
   0.500000000   0.499667128   0.499667128
   0.000000000   0.249253296   0.249253296
   0.999817041   0.249801701   0.750559396
   0.000182959   0.750559396   0.249801701
   0.000000000   0.749742298   0.749742298
   0.500000000   0.249672682   0.249672682
   0.500544968   0.249552981   0.750500193
   0.499455032   0.750500193   0.249552981
   0.500000000   0.750435821   0.750435821
   0.248730814   0.000326964   0.750408857
   0.248216887   0.499738108   0.250013654
   0.248958756   0.499582000   0.750072847
   0.751014475   0.001234792   0.248620480
   0.751433381   0.000764048   0.751194423
   0.750959175   0.499318369   0.250129483
   0.750905512   0.499453890   0.749895453
   0.248985525   0.248620480   0.001234792
   0.249040825   0.250129483   0.499318369
   0.248566619   0.751194423   0.000764048
   0.249094488   0.749895453   0.499453890
   0.751783113   0.250013654   0.499738108
   0.751269186   0.750408857   0.000326964
   0.751041244   0.750072847   0.499582000
   0.249252151   0.251318112   0.248964355
   0.249439618   0.249638838   0.750337909
   0.249112582   0.748923486   0.249406013
   0.249292167   0.750421820   0.749990076
   0.750747849   0.248964355   0.251318112
   0.750887418   0.249406013   0.748923486
   0.750560382   0.750337909   0.249638838
   0.750707833   0.749990076   0.750421820
   0.249490779   0.000476567   0.999319983
   0.249174545   0.000046084   0.501012182
   0.249266455   0.499641719   0.000462642
   0.250901222   0.500038555   0.499439568
   0.750509221   0.999319983   0.000476567
   0.750733545   0.000462642   0.499641719
   0.750825455   0.501012182   0.000046084
   0.749098778   0.499439568   0.500038555
   0.001357483   0.250231314   0.000431508
   0.999513554   0.246841285   0.499942021
   0.000261883   0.749603058   0.000667224
   0.000129157   0.753092879   0.499869428
   0.498654205   0.249068323   0.000112657
   0.500104039   0.249833348   0.499636095
   0.500160106   0.751244218   0.000385914
   0.499542851   0.750079316   0.499581149
   0.998642517   0.000431508   0.250231314
   0.999738117   0.000667224   0.749603058
   0.000486446   0.499942021   0.246841285
   0.999870843   0.499869428   0.753092879
   0.501345795   0.000112657   0.249068323
   0.499839894   0.000385914   0.751244218
   0.499895961   0.499636095   0.249833348
   0.500457149   0.499581149   0.750079316
Mg28Ni4O32
   1.00000000
   8.456548537   0.000200593  -0.000200593
   0.000200593   8.456518593   0.000022118
  -0.000200593   0.000022118   8.456518593
  Ni  Mg  O
  4  28  32
Direct configuration=     5
   1.000000000   0.001119622   0.001119622
   1.000000000   0.500561887   0.500561887
   0.249112905   0.999367916   0.249471453
   0.750887095   0.249471453   0.999367916
   0.000355988   0.000883447   0.498720276
   0.999644012   0.498720276   0.000883447
   0.500000000   0.000637748   0.000637748
   0.499824578   0.000430603   0.499075329
   0.500175422   0.499075329   0.000430603
   0.500000000   0.499479180   0.499479180
   0.000000000   0.249080371   0.249080371
   0.000032249   0.249520630   0.750687590
   0.999967751   0.750687590   0.249520630
   0.000000000   0.749900335   0.749900335
   0.500000000   0.249714636   0.249714636
   0.500471638   0.249301015   0.750488277
   0.499528362   0.750488277   0.249301015
   0.500000000   0.750676298   0.750676298
   0.248241828   0.000536929   0.750424597
   0.247690837   0.499594902   0.249571112
   0.248749423   0.499335630   0.750572559
   0.751305358   0.001471093   0.248512630
   0.751968361   0.000834525   0.751214935
   0.751241765   0.499224254   0.250041241
   0.751098267   0.499420638   0.750004711
   0.248694642   0.248512630   0.001471093
   0.248758235   0.250041241   0.499224254
   0.248031639   0.751214935   0.000834525
   0.248901733   0.750004711   0.499420638
   0.752309163   0.249571112   0.499594902
   0.751758172   0.750424597   0.000536929
   0.751250577   0.750572559   0.499335630
   0.248922484   0.251252838   0.248901933
   0.249163776   0.249697014   0.750280375
   0.248746219   0.749007879   0.249364668
   0.248981450   0.750397946   0.749930333
   0.751077516   0.248901933   0.251252838
   0.751253781   0.249364668   0.749007879
   0.750836224   0.750280375   0.249697014
   0.751018550   0.749930333   0.750397946
   0.249043066   0.000515467   0.999554575
   0.249200050   0.000058154   0.500783088
   0.249328742   0.499618637   0.000435497
   0.250539701   0.500057475   0.499397032
   0.750956934   0.999554575   0.000515467
   0.750671258   0.000435497   0.499618637
   0.750799950   0.500783088   0.000058154
   0.749460299   0.499397032   0.500057475
   0.001347767   0.249859162   0.000604904
   0.999645749   0.246559244   0.499820645
   0.000439044   0.750035602   0.000872298
   0.000250319   0.753496155   0.499738165
   0.498663598   0.248776640   0.000223403
   0.499943718   0.249629360   0.499446789
   0.500048829   0.751623516   0.000532787
   0.499321168   0.750253060   0.499398986
   0.998652233   0.000604904   0.249859162
   0.999560956   0.000872298   0.750035602
   0.000354251   0.499820645   0.246559244
   0.999749681   0.499738165   0.753496155
   0.501336402   0.000223403   0.248776640
   0.499951171   0.000532787   0.751623516
   0.500056282   0.499446789   0.249629360
   0.500678832   0.499398986   0.750253060
Mg28Ni4O32
   1.00000000
   8.463181321   0.000283114  -0.000283114
   0.000283115   8.463142903   0.000030656
  -0.000283115   0.000030656   8.463142903
  Ni  Mg  O
  4  28  32
Direct configuration=     6
   1.000000000   0.001175819   0.001175819
   1.000000000   0.500591988   0.500591988
   0.248925512   0.999307226   0.249444077
   0.751074488   0.249444077   0.999307226
   0.000215961   0.001075262   0.498648047
   0.999784039   0.498648047   0.001075262
   0.500000000   0.000615715   0.000615715
   0.500045135   0.000562859   0.499067366
   0.499954865   0.499067366   0.000562859
   0.500000000   0.499333414   0.499333414
   0.000000000   0.248989638   0.248989638
   0.000284666   0.249275871   0.750780713
   0.999715334   0.750780713   0.249275871
   0.000000000   0.750108194   0.750108194
   0.500000000   0.249784411   0.249784411
   0.500337816   0.249077020   0.750410238
   0.499662184   0.750410238   0.249077020
   0.500000000   0.750888067   0.750888067
   0.247883308   0.000701634   0.750391299
   0.247354447   0.499494619   0.249116198
   0.248686719   0.499134548   0.751103253
   0.751437546   0.001571609   0.248523995
   0.752344245   0.000789371   0.751124960
   0.751422403   0.499174852   0.249940517
   0.751176643   0.499449185   0.750138851
   0.248562454   0.248523995   0.001571609
   0.248577597   0.249940517   0.499174852
   0.247655755   0.751124960   0.000789371
   0.248823357   0.750138851   0.499449185
   0.752645553   0.249116198   0.499494619
   0.752116692   0.750391299   0.000701634
   0.751313281   0.751103253   0.499134548
   0.248630332   0.250982348   0.248980952
   0.248909456   0.249784784   0.750193137
   0.248428059   0.749242403   0.249362858
   0.248702465   0.750333338   0.749922105
   0.751369668   0.248980952   0.250982348
   0.751571941   0.249362858   0.749242403
   0.751090544   0.750193137   0.249784784
   0.751297535   0.749922105   0.750333338
   0.248561251   0.000497994   0.999919198
   0.249327520   0.000111084   0.500372231
   0.249472953   0.499624234   0.000355940
   0.249899605   0.500037835   0.499421188
   0.751438749   0.999919198   0.000497994
   0.750527047   0.000355940   0.499624234
   0.750672480   0.500372231   0.000111084
   0.750100395   0.499421188   0.500037835
   0.001145291   0.249437264   0.000737995
   0.999885884   0.246705419   0.499685617
   0.000564590   0.750548371   0.001006094
   0.000327606   0.753535660   0.499598870
   0.498855595   0.248597477   0.000337318
   0.499765333   0.249412423   0.499281693
   0.499907457   0.751846301   0.000645777
   0.499175156   0.750447786   0.499243489
   0.998854709   0.000737995   0.249437264
   0.999435410   0.001006094   0.750548371
   0.000114116   0.499685617   0.246705419
   0.999672394   0.499598870   0.753535660
   0.501144405   0.000337318   0.248597477
   0.500092543   0.000645777   0.751846301
   0.500234667   0.499281693   0.249412423
   0.500824844   0.499243489   0.750447786
Mg28Ni4O32
   1.00000000
   8.469305376   0.000360071  -0.000360071
   0.000360071   8.469260399   0.000038452
  -0.000360071   0.000038452   8.469260399
  Ni  Mg  O
  4  28  32
Direct configuration=     7
   1.000000000   0.001150067   0.001150067
   1.000000000   0.500607364   0.500607364
   0.248874391   0.999293184   0.249456997
   0.751125609   0.249456997   0.999293184
   0.000170194   0.001068875   0.498667926
   0.999829806   0.498667926   0.001068875
   0.500000000   0.000558403   0.000558403
   0.500156029   0.000585585   0.499125269
   0.499843971   0.499125269   0.000585585
   0.500000000   0.499303474   0.499303474
   0.000000000   0.249005789   0.249005789
   0.000433091   0.249213035   0.750823933
   0.999566909   0.750823933   0.249213035
   1.000000000   0.750250071   0.750250071
   0.500000000   0.249820885   0.249820885
   0.500242615   0.248976075   0.750323264
   0.499757385   0.750323264   0.248976075
   0.500000000   0.750980129   0.750980129
   0.247804574   0.000734417   0.750341036
   0.247319303   0.499493252   0.248906149
   0.248784316   0.499076288   0.751386361
   0.751345412   0.001530658   0.248567952
   0.752402869   0.000666031   0.751038817
   0.751440306   0.499148821   0.249892484
   0.751126593   0.499500334   0.750225468
   0.248654588   0.248567952   0.001530658
   0.248559694   0.249892484   0.499148821
   0.247597131   0.751038817   0.000666031
   0.248873407   0.750225468   0.499500334
   0.752680697   0.248906149   0.499493252
   0.752195426   0.750341036   0.000734417
   0.751215684   0.751386361   0.499076288
   0.248490656   0.250676298   0.249126247
   0.248783671   0.249823854   0.750150272
   0.248276791   0.749466247   0.249360469
   0.248564042   0.750290030   0.750002479
   0.751509344   0.249126247   0.250676298
   0.751723209   0.249360469   0.749466247
   0.751216329   0.750150272   0.249823854
   0.751435958   0.750002479   0.750290030
   0.248249588   0.000451418   0.000209778
   0.249457971   0.000201729   0.500012539
   0.249583456   0.499631356   0.000292846
   0.249269987   0.499975959   0.499480400
   0.751750412   0.000209778   0.000451418
   0.750416544   0.000292846   0.499631356
   0.750542029   0.500012539   0.000201729
   0.750730013   0.499480400   0.499975959
   0.000896992   0.249209855   0.000774793
   0.000106389   0.247119564   0.499602645
   0.000554557   0.750845324   0.001016760
   0.000302210   0.753300698   0.499516217
   0.499088463   0.248599040   0.000400265
   0.499677454   0.249291735   0.499213754
   0.499819077   0.751820602   0.000676272
   0.499187663   0.750563984   0.499178181
   0.999103008   0.000774793   0.249209855
   0.999445443   0.001016760   0.750845324
   0.999893611   0.499602645   0.247119564
   0.999697790   0.499516217   0.753300698
   0.500911537   0.000400265   0.248599040
   0.500180923   0.000676272   0.751820602
   0.500322546   0.499213754   0.249291735
   0.500812337   0.499178181   0.750563984
Mg28Ni4O32
   1.00000000
   8.478857572   0.000481025  -0.000481025
   0.000481026   8.478803681   0.000050664
  -0.000481026   0.000050664   8.478803681
  Ni  Mg  O
  4  28  32
Direct configuration=     8
   1.000000000   0.001072442   0.001072442
   0.000000000   0.500640361   0.500640361
   0.248934711   0.999303250   0.249497436
   0.751065289   0.249497436   0.999303250
   0.000259260   0.000848349   0.498746000
   0.999740740   0.498746000   0.000848349
   0.500000000   0.000471022   0.000471022
   0.500144217   0.000495595   0.499237288
   0.499855783   0.499237288   0.000495595
   0.500000000   0.499389237   0.499389237
   0.000000000   0.249125003   0.249125003
   0.000499433   0.249349826   0.750850455
   0.999500567   0.750850455   0.249349826
   1.000000000   0.750347442   0.750347442
   0.500000000   0.249806559   0.249806559
   0.500194002   0.248961795   0.750218849
   0.499805998   0.750218849   0.248961795
   0.500000000   0.750981951   0.750981951
   0.247976586   0.000633689   0.750272014
   0.247537987   0.499602076   0.248929638
   0.249059374   0.499149956   0.751466803
   0.750991233   0.001369629   0.248584793
   0.752171641   0.000442826   0.750995576
   0.751320416   0.499098206   0.249902972
   0.750955716   0.499564655   0.750278435
   0.249008767   0.248584793   0.001369629
   0.248679584   0.249902972   0.499098206
   0.247828359   0.750995576   0.000442826
   0.249044284   0.750278435   0.499564655
   0.752462013   0.248929638   0.499602076
   0.752023414   0.750272014   0.000633689
   0.750940626   0.751466803   0.499149956
   0.248458522   0.250284199   0.249342017
   0.248756550   0.249783531   0.750176896
   0.248234967   0.749694522   0.249321888
   0.248522453   0.750289871   0.750224569
   0.751541478   0.249342017   0.250284199
   0.751765033   0.249321888   0.749694522
   0.751243450   0.750176896   0.249783531
   0.751477547   0.750224569   0.750289871
   0.248015097   0.000377435   0.000474225
   0.249596107   0.000369036   0.499642113
   0.249644908   0.499616866   0.000262350
   0.248469481   0.499850169   0.499577334
   0.751984903   0.000474225   0.000377435
   0.750355092   0.000262350   0.499616866
   0.750403893   0.499642113   0.000369036
   0.751530519   0.499577334   0.499850169
   0.000579549   0.249166918   0.000726791
   0.000351959   0.247844457   0.499556618
   0.000372190   0.750943203   0.000910654
   0.000145099   0.752815214   0.499474408
   0.499383698   0.248768486   0.000423190
   0.499688996   0.249257539   0.499225946
   0.499780856   0.751541961   0.000628345
   0.499379762   0.750610751   0.499184366
   0.999420451   0.000726791   0.249166918
   0.999627810   0.000910654   0.750943203
   0.999648041   0.499556618   0.247844457
   0.999854901   0.499474408   0.752815214
   0.500616302   0.000423190   0.248768486
   0.500219144   0.000628345   0.751541961
   0.500311004   0.499225946   0.249257539
   0.500620238   0.499184366   0.750610751
Mg28Ni4O32
   1.00000000
   8.488825148   0.000608410  -0.000608410
   0.000608411   8.488763360   0.000063720
  -0.000608411   0.000063720   8.488763360
  Ni  Mg  O
  4  28  32
Direct configuration=     9
   1.000000000   0.000987276   0.000987276
   0.000000000   0.500686704   0.500686704
   0.249116526   0.999339917   0.249543171
   0.750883474   0.249543171   0.999339917
   0.000514048   0.000453642   0.498846276
   0.999485952   0.498846276   0.000453642
   0.500000000   0.000408466   0.000408466
   0.499930181   0.000295566   0.499337260
   0.500069819   0.499337260   0.000295566
   0.500000000   0.499596472   0.499596472
   0.000000000   0.249322613   0.249322613
   0.000386756   0.249714439   0.750831188
   0.999613244   0.750831188   0.249714439
   1.000000000   0.750294656   0.750294656
   0.500000000   0.249712126   0.249712126
   0.500269364   0.249088625   0.750166633
   0.499730636   0.750166633   0.249088625
   0.500000000   0.750839565   0.750839565
   0.248416500   0.000396778   0.750226528
   0.247972957   0.499808665   0.249322670
   0.249401590   0.499375881   0.751154248
   0.750482317   0.001150157   0.248523587
   0.751666730   0.000236497   0.751069419
   0.751084233   0.499032377   0.250007883
   0.750737810   0.499591585   0.750233036
   0.249517683   0.248523587   0.001150157
   0.248915767   0.250007883   0.499032377
   0.248333270   0.751069419   0.000236497
   0.249262190   0.750233036   0.499591585
   0.752027043   0.249322670   0.499808665
   0.751583500   0.750226528   0.000396778
   0.750598410   0.751154248   0.499375881
   0.248636166   0.250060797   0.249487154
   0.248930472   0.249622882   0.750315090
   0.248406290   0.749738792   0.249247439
   0.248682958   0.750377505   0.750508564
   0.751363834   0.249487154   0.250060797
   0.751593710   0.249247439   0.749738792
   0.751069528   0.750315090   0.249622882
   0.751317042   0.750508564   0.750377505
   0.248094757   0.000317810   0.000483088
   0.249636979   0.000522923   0.499550037
   0.249563656   0.499565408   0.000325807
   0.248013398   0.499732214   0.499661440
   0.751905243   0.000483088   0.000317810
   0.750436344   0.000325807   0.499565408
   0.750363021   0.499550037   0.000522923
   0.751986602   0.499661440   0.499732214
   0.000408517   0.249477523   0.000578169
   0.000441143   0.248491576   0.499614815
   0.000030106   0.750612602   0.000696451
   0.999893304   0.752333176   0.499542853
   0.499542217   0.249064034   0.000354881
   0.499874225   0.249419633   0.499361502
   0.499867469   0.751072856   0.000480738
   0.499715103   0.750480566   0.499307772
   0.999591483   0.000578169   0.249477523
   0.999969894   0.000696451   0.750612602
   0.999558857   0.499614815   0.248491576
   0.000106696   0.499542853   0.752333176
   0.500457783   0.000354881   0.249064034
   0.500132531   0.000480738   0.751072856
   0.500125775   0.499361502   0.249419633
   0.500284897   0.499307772   0.750480566
Mg28Ni4O32
   1.00000000
   8.495232731   0.000692026  -0.000692026
   0.000692028   8.495167575   0.000072717
  -0.000692028   0.000072717   8.495167575
  Ni  Mg  O
  4  28  32
Direct configuration=     10
   1.000000000   0.000931820   0.000931820
   0.000000000   0.500710688   0.500710688
   0.249319677   0.999395758   0.249571728
   0.750680323   0.249571728   0.999395758
   0.000779935   0.000109376   0.498934224
   0.999220065   0.498934224   0.000109376
   0.500000000   0.000397632   0.000397632
   0.499637161   0.000101596   0.499371733
   0.500362839   0.499371733   0.000101596
   0.500000000   0.499812683   0.499812683
   0.000000000   0.249508047   0.249508047
   0.000167461   0.250105022   0.750753382
   0.999832539   0.750753382   0.250105022
   1.000000000   0.750118052   0.750118052
   0.500000000   0.249596334   0.249596334
   0.500423839   0.249292198   0.750186047
   0.499576161   0.750186047   0.249292198
   0.500000000   0.750618891   0.750618891
   0.248901599   0.000158014   0.750222462
   0.248394711   0.499999068   0.249870983
   0.249618910   0.499630118   0.750612487
   0.750100303   0.000978308   0.248448371
   0.751162270   0.000165984   0.751190280
   0.750855142   0.499005318   0.250151653
   0.750597041   0.499570840   0.750108675
   0.249899697   0.248448371   0.000978308
   0.249144858   0.250151653   0.499005318
   0.248837730   0.751190280   0.000165984
   0.249402959   0.750108675   0.499570840
   0.751605289   0.249870983   0.499999068
   0.751098401   0.750222462   0.000158014
   0.750381090   0.750612487   0.499630118
   0.248969448   0.250128503   0.249476353
   0.249257700   0.249424710   0.750492206
   0.248737027   0.749575468   0.249198976
   0.249003099   0.750507088   0.750673452
   0.751030552   0.249476353   0.250128503
   0.751262973   0.249198976   0.749575468
   0.750742300   0.750492206   0.249424710
   0.750996901   0.750673452   0.750507088
   0.248499067   0.000296256   0.000219776
   0.249572634   0.000546129   0.499798182
   0.249389833   0.499505823   0.000453242
   0.248215597   0.499718778   0.499698218
   0.751500933   0.000219776   0.000296256
   0.750610167   0.000453242   0.499505823
   0.750427366   0.499798182   0.000546129
   0.751784403   0.499698218   0.499718778
   0.000475433   0.249986329   0.000401145
   0.000309062   0.248718150   0.499762829
   0.999704064   0.750010410   0.000479879
   0.999697329   0.752099267   0.499707555
   0.499485417   0.249319402   0.000215960
   0.500147552   0.249732990   0.499559349
   0.500043986   0.750664336   0.000295521
   0.499999770   0.750205258   0.499500688
   0.999524567   0.000401145   0.249986329
   0.000295936   0.000479879   0.750010410
   0.999690938   0.499762829   0.248718150
   0.000302671   0.499707555   0.752099267
   0.500514583   0.000215960   0.249319402
   0.499956014   0.000295521   0.750664336
   0.499852448   0.499559349   0.249732990
   0.500000230   0.499500688   0.750205258
Mg28Ni4O32
   1.00000000
   8.497004139   0.000717544  -0.000717544
   0.000717546   8.496940008   0.000076011
  -0.000717546   0.000076011   8.496940008
  Ni  Mg  O
  4  28  32
Direct configuration=     11
   0.000000000   0.000902423   0.000902423
   0.000000000   0.500687754   0.500687754
   0.249424977   0.999451061   0.249581994
   0.750575023   0.249581994   0.999451061